; JBJ-04-125-02_GMX.top created by acpype (v: 2023.10.27) on Wed Sep 30 13:48:18 2026

[ defaults ]
; nbfunc        comb-rule       gen-pairs       fudgeLJ fudgeQQ
1               2               yes             0.5     0.8333333333

[ atomtypes ]
;name   bond_type     mass     charge   ptype   sigma         epsilon       Amb
 o        o           0.00000  0.00000   A     3.04812e-01   6.12119e-01 ; 1.71  0.1463
 c2       c2          0.00000  0.00000   A     3.31521e-01   4.13379e-01 ; 1.86  0.0988
 n        n           0.00000  0.00000   A     3.18086e-01   6.84502e-01 ; 1.79  0.1636
 n2       n2          0.00000  0.00000   A     3.38417e-01   3.93714e-01 ; 1.90  0.0941
 ss       ss          0.00000  0.00000   A     3.53241e-01   1.18156e+00 ; 1.98  0.2824
 c3       c3          0.00000  0.00000   A     3.39771e-01   4.51035e-01 ; 1.91  0.1078
 ca       ca          0.00000  0.00000   A     3.31521e-01   4.13379e-01 ; 1.86  0.0988
 f        f           0.00000  0.00000   A     3.03422e-01   3.48109e-01 ; 1.70  0.0832
 hn       hn          0.00000  0.00000   A     1.10650e-01   4.18400e-02 ; 0.62  0.0100
 h4       h4          0.00000  0.00000   A     2.53639e-01   6.73624e-02 ; 1.42  0.0161
 h1       h1          0.00000  0.00000   A     2.42200e-01   8.70272e-02 ; 1.36  0.0208
 ha       ha          0.00000  0.00000   A     2.62548e-01   6.73624e-02 ; 1.47  0.0161

[ moleculetype ]
;name            nrexcl
 JBJ-04-125-02    3

[ atoms ]
;   nr  type  resi  res  atom  cgnr     charge      mass       ; qtot   bond_type
     1    o     1   UNL    O1    1    -0.358000     16.00000 ; qtot -0.358
     2   c2     1   UNL    C1    2     0.289000     12.01000 ; qtot -0.069
     3    n     1   UNL    N1    3    -0.273000     14.01000 ; qtot -0.342
     4   c2     1   UNL    C2    4    -0.170000     12.01000 ; qtot -0.512
     5   n2     1   UNL    N2    5    -0.154000     14.01000 ; qtot -0.666
     6   c2     1   UNL    C3    6    -0.113000     12.01000 ; qtot -0.779
     7   c2     1   UNL    C4    7    -0.521000     12.01000 ; qtot -1.300
     8   ss     1   UNL    S1    8     0.590000     32.06000 ; qtot -0.710
     9   c3     1   UNL    C5    9     0.093000     12.01000 ; qtot -0.617
    10   ca     1   UNL    C6   10    -0.134000     12.01000 ; qtot -0.751
    11   ca     1   UNL    C7   11    -0.086500     12.01000 ; qtot -0.838
    12   ca     1   UNL    C8   12    -0.168000     12.01000 ; qtot -1.006
    13   ca     1   UNL    C9   13     0.105000     12.01000 ; qtot -0.901
    14    f     1   UNL    F1   14    -0.101000     19.00000 ; qtot -1.002
    15   ca     1   UNL   C10   15    -0.168000     12.01000 ; qtot -1.169
    16   ca     1   UNL   C11   16    -0.086500     12.01000 ; qtot -1.256
    17    n     1   UNL    N3   17    -0.352000     14.01000 ; qtot -1.608
    18   c3     1   UNL   C12   18     0.012000     12.01000 ; qtot -1.596
    19   ca     1   UNL   C13   19    -0.075000     12.01000 ; qtot -1.671
    20   ca     1   UNL   C14   20    -0.117000     12.01000 ; qtot -1.788
    21   ca     1   UNL   C15   21    -0.099000     12.01000 ; qtot -1.887
    22   ca     1   UNL   C16   22    -0.140000     12.01000 ; qtot -2.027
    23   ca     1   UNL   C17   23    -0.049000     12.01000 ; qtot -2.076
    24   ca     1   UNL   C18   24    -0.136000     12.01000 ; qtot -2.212
    25   c2     1   UNL   C19   25     0.371000     12.01000 ; qtot -1.841
    26    o     1   UNL    O2   26    -0.355000     16.00000 ; qtot -2.196
    27   hn     1   UNL    H1   27     0.283000      1.00800 ; qtot -1.913
    28   h4     1   UNL    H2   28     0.178000      1.00800 ; qtot -1.735
    29   h4     1   UNL    H3   29     0.179000      1.00800 ; qtot -1.556
    30   h1     1   UNL    H4   30     0.135000      1.00800 ; qtot -1.421
    31   ha     1   UNL    H5   31     0.154500      1.00800 ; qtot -1.267
    32   ha     1   UNL    H6   32     0.154500      1.00800 ; qtot -1.112
    33   ha     1   UNL    H7   33     0.154500      1.00800 ; qtot -0.958
    34   ha     1   UNL    H8   34     0.154500      1.00800 ; qtot -0.803
    35   h1     1   UNL    H9   35     0.110000      1.00800 ; qtot -0.693
    36   h1     1   UNL   H10   36     0.110000      1.00800 ; qtot -0.583
    37   ha     1   UNL   H11   37     0.143000      1.00800 ; qtot -0.440
    38   ha     1   UNL   H12   38     0.139000      1.00800 ; qtot -0.301
    39   ha     1   UNL   H13   39     0.142000      1.00800 ; qtot -0.159
    40   ha     1   UNL   H14   40     0.159000      1.00800 ; qtot -0.000

[ bonds ]
;   ai     aj funct   r             k
     1      2   1    1.2249e-01    4.8317e+05 ;     O1 - C1    
     2      3   1    1.4001e-01    2.6265e+05 ;     C1 - N1    
     2      9   1    1.5088e-01    2.0786e+05 ;     C1 - C5    
     3      4   1    1.4001e-01    2.6265e+05 ;     N1 - C2    
     3     27   1    1.0130e-01    4.4124e+05 ;     N1 - H1    
     4      5   1    1.2809e-01    3.9831e+05 ;     C2 - N2    
     4      8   1    1.7842e-01    1.7887e+05 ;     C2 - S1    
     5      6   1    1.2809e-01    3.9831e+05 ;     N2 - C3    
     6      7   1    1.3379e-01    3.6484e+05 ;     C3 - C4    
     6     28   1    1.0865e-01    3.0117e+05 ;     C3 - H2    
     7      8   1    1.7842e-01    1.7887e+05 ;     C4 - S1    
     7     29   1    1.0865e-01    3.0117e+05 ;     C4 - H3    
     9     10   1    1.5147e-01    2.0410e+05 ;     C5 - C6    
     9     17   1    1.4643e-01    2.1293e+05 ;     C5 - N3    
     9     30   1    1.0969e-01    2.8804e+05 ;     C5 - H4    
    10     11   1    1.3986e-01    2.9644e+05 ;     C6 - C7    
    10     16   1    1.3986e-01    2.9644e+05 ;     C6 - C11   
    11     12   1    1.3986e-01    2.9644e+05 ;     C7 - C8    
    11     31   1    1.0860e-01    3.0183e+05 ;     C7 - H5    
    12     13   1    1.3986e-01    2.9644e+05 ;     C8 - C9    
    12     32   1    1.0860e-01    3.0183e+05 ;     C8 - H6    
    13     14   1    1.3502e-01    2.8070e+05 ;     C9 - F1    
    13     15   1    1.3986e-01    2.9644e+05 ;     C9 - C10   
    15     16   1    1.3986e-01    2.9644e+05 ;    C10 - C11   
    15     33   1    1.0860e-01    3.0183e+05 ;    C10 - H7    
    16     34   1    1.0860e-01    3.0183e+05 ;    C11 - H8    
    17     18   1    1.4643e-01    2.1293e+05 ;     N3 - C12   
    17     25   1    1.4001e-01    2.6265e+05 ;     N3 - C19   
    18     19   1    1.5147e-01    2.0410e+05 ;    C12 - C13   
    18     35   1    1.0969e-01    2.8804e+05 ;    C12 - H9    
    18     36   1    1.0969e-01    2.8804e+05 ;    C12 - H10   
    19     20   1    1.3986e-01    2.9644e+05 ;    C13 - C14   
    19     24   1    1.3986e-01    2.9644e+05 ;    C13 - C18   
    20     21   1    1.3986e-01    2.9644e+05 ;    C14 - C15   
    20     37   1    1.0860e-01    3.0183e+05 ;    C14 - H11   
    21     22   1    1.3986e-01    2.9644e+05 ;    C15 - C16   
    21     38   1    1.0860e-01    3.0183e+05 ;    C15 - H12   
    22     23   1    1.3986e-01    2.9644e+05 ;    C16 - C17   
    22     39   1    1.0860e-01    3.0183e+05 ;    C16 - H13   
    23     24   1    1.3986e-01    2.9644e+05 ;    C17 - C18   
    23     40   1    1.0860e-01    3.0183e+05 ;    C17 - H14   
    24     25   1    1.3739e-01    3.2221e+05 ;    C18 - C19   
    25     26   1    1.2249e-01    4.8317e+05 ;    C19 - O2    

[ pairs ]
;   ai     aj    funct
     1      4      1 ;     O1 - C2    
     1     10      1 ;     O1 - C6    
     1     17      1 ;     O1 - N3    
     1     27      1 ;     O1 - H1    
     1     30      1 ;     O1 - H4    
     2      5      1 ;     C1 - N2    
     2      8      1 ;     C1 - S1    
     2     11      1 ;     C1 - C7    
     2     16      1 ;     C1 - C11   
     2     18      1 ;     C1 - C12   
     2     25      1 ;     C1 - C19   
     3      6      1 ;     N1 - C3    
     3      7      1 ;     N1 - C4    
     3     10      1 ;     N1 - C6    
     3     17      1 ;     N1 - N3    
     3     30      1 ;     N1 - H4    
     4      9      1 ;     C2 - C5    
     4     28      1 ;     C2 - H2    
     4     29      1 ;     C2 - H3    
     5     27      1 ;     N2 - H1    
     5     29      1 ;     N2 - H3    
     8     27      1 ;     S1 - H1    
     8     28      1 ;     S1 - H2    
     9     12      1 ;     C5 - C8    
     9     15      1 ;     C5 - C10   
     9     19      1 ;     C5 - C13   
     9     24      1 ;     C5 - C18   
     9     26      1 ;     C5 - O2    
     9     27      1 ;     C5 - H1    
     9     31      1 ;     C5 - H5    
     9     34      1 ;     C5 - H8    
     9     35      1 ;     C5 - H9    
     9     36      1 ;     C5 - H10   
    10     13      1 ;     C6 - C9    
    10     18      1 ;     C6 - C12   
    10     25      1 ;     C6 - C19   
    10     32      1 ;     C6 - H6    
    10     33      1 ;     C6 - H7    
    11     14      1 ;     C7 - F1    
    11     15      1 ;     C7 - C10   
    11     17      1 ;     C7 - N3    
    11     30      1 ;     C7 - H4    
    11     34      1 ;     C7 - H8    
    12     16      1 ;     C8 - C11   
    12     33      1 ;     C8 - H7    
    13     31      1 ;     C9 - H5    
    13     34      1 ;     C9 - H8    
    14     16      1 ;     F1 - C11   
    14     32      1 ;     F1 - H6    
    14     33      1 ;     F1 - H7    
    15     32      1 ;    C10 - H6    
    16     17      1 ;    C11 - N3    
    16     30      1 ;    C11 - H4    
    16     31      1 ;    C11 - H5    
    17     20      1 ;     N3 - C14   
    17     23      1 ;     N3 - C17   
    18     21      1 ;    C12 - C15   
    18     23      1 ;    C12 - C17   
    18     26      1 ;    C12 - O2    
    18     30      1 ;    C12 - H4    
    18     37      1 ;    C12 - H11   
    19     22      1 ;    C13 - C16   
    19     26      1 ;    C13 - O2    
    19     38      1 ;    C13 - H12   
    19     40      1 ;    C13 - H14   
    20     23      1 ;    C14 - C17   
    20     25      1 ;    C14 - C19   
    20     35      1 ;    C14 - H9    
    20     36      1 ;    C14 - H10   
    20     39      1 ;    C14 - H13   
    21     24      1 ;    C15 - C18   
    21     40      1 ;    C15 - H14   
    22     25      1 ;    C16 - C19   
    22     37      1 ;    C16 - H11   
    23     26      1 ;    C17 - O2    
    23     38      1 ;    C17 - H12   
    24     35      1 ;    C18 - H9    
    24     36      1 ;    C18 - H10   
    24     37      1 ;    C18 - H11   
    24     39      1 ;    C18 - H13   
    25     30      1 ;    C19 - H4    
    25     35      1 ;    C19 - H9    
    25     36      1 ;    C19 - H10   
    25     40      1 ;    C19 - H14   
    28     29      1 ;     H2 - H3    
    31     32      1 ;     H5 - H6    
    33     34      1 ;     H7 - H8    
    37     38      1 ;    H11 - H12   
    38     39      1 ;    H12 - H13   
    39     40      1 ;    H13 - H14   

[ angles ]
;   ai     aj     ak    funct   theta         cth
     1      2      3      1    1.1746e+02    6.2843e+02 ;     O1 - C1     - N1    
     1      2      9      1    1.2286e+02    6.4501e+02 ;     O1 - C1     - C5    
     2      3      4      1    1.2332e+02    6.4894e+02 ;     C1 - N1     - C2    
     2      3     27      1    1.1790e+02    4.0166e+02 ;     C1 - N1     - H1    
     2      9     10      1    1.1305e+02    5.0794e+02 ;     C1 - C5     - C6    
     2      9     17      1    1.1255e+02    5.4928e+02 ;     C1 - C5     - N3    
     2      9     30      1    1.0996e+02    3.6727e+02 ;     C1 - C5     - H4    
     3      2      9      1    1.2152e+02    5.3898e+02 ;     N1 - C1     - C5    
     3      4      5      1    1.2172e+02    6.1957e+02 ;     N1 - C2     - N2    
     3      4      8      1    1.1128e+02    5.8216e+02 ;     N1 - C2     - S1    
     4      3     27      1    1.1790e+02    4.0166e+02 ;     C2 - N1     - H1    
     4      5      6      1    1.1818e+02    6.1254e+02 ;     C2 - N2     - C3    
     4      8      7      1    9.9700e+01    7.9981e+02 ;     C2 - S1     - C4    
     5      4      8      1    1.2265e+02    5.6199e+02 ;     N2 - C2     - S1    
     5      6      7      1    1.2601e+02    7.5145e+02 ;     N2 - C3     - C4    
     5      6     28      1    1.2105e+02    4.2426e+02 ;     N2 - C3     - H2    
     6      7      8      1    1.2219e+02    5.2752e+02 ;     C3 - C4     - S1    
     6      7     29      1    1.2272e+02    3.8451e+02 ;     C3 - C4     - H3    
     7      6     28      1    1.2272e+02    3.8451e+02 ;     C4 - C3     - H2    
     8      7     29      1    1.1627e+02    3.5179e+02 ;     S1 - C4     - H3    
     9     10     11      1    1.2083e+02    5.0827e+02 ;     C5 - C6     - C7    
     9     10     16      1    1.2083e+02    5.0827e+02 ;     C5 - C6     - C11   
     9     17     18      1    1.1675e+02    6.3773e+02 ;     C5 - N3     - C12   
     9     17     25      1    1.2234e+02    6.3630e+02 ;     C5 - N3     - C19   
    10      9     17      1    1.1351e+02    5.4584e+02 ;     C6 - C5     - N3    
    10      9     30      1    1.0960e+02    3.6660e+02 ;     C6 - C5     - H4    
    10     11     12      1    1.2002e+02    5.3279e+02 ;     C6 - C7     - C8    
    10     11     31      1    1.1988e+02    3.7572e+02 ;     C6 - C7     - H5    
    10     16     15      1    1.2002e+02    5.3279e+02 ;     C6 - C11    - C10   
    10     16     34      1    1.1988e+02    3.7572e+02 ;     C6 - C11    - H8    
    11     10     16      1    1.2002e+02    5.3279e+02 ;     C7 - C6     - C11   
    11     12     13      1    1.2002e+02    5.3279e+02 ;     C7 - C8     - C9    
    11     12     32      1    1.1988e+02    3.7572e+02 ;     C7 - C8     - H6    
    12     11     31      1    1.1988e+02    3.7572e+02 ;     C8 - C7     - H5    
    12     13     14      1    1.1896e+02    6.7404e+02 ;     C8 - C9     - F1    
    12     13     15      1    1.2002e+02    5.3279e+02 ;     C8 - C9     - C10   
    13     12     32      1    1.1988e+02    3.7572e+02 ;     C9 - C8     - H6    
    13     15     16      1    1.2002e+02    5.3279e+02 ;     C9 - C10    - C11   
    13     15     33      1    1.1988e+02    3.7572e+02 ;     C9 - C10    - H7    
    14     13     15      1    1.1896e+02    6.7404e+02 ;     F1 - C9     - C10   
    15     16     34      1    1.1988e+02    3.7572e+02 ;    C10 - C11    - H8    
    16     15     33      1    1.1988e+02    3.7572e+02 ;    C11 - C10    - H7    
    17      9     30      1    1.0876e+02    4.0242e+02 ;     N3 - C5     - H4    
    17     18     19      1    1.1351e+02    5.4584e+02 ;     N3 - C12    - C13   
    17     18     35      1    1.0876e+02    4.0242e+02 ;     N3 - C12    - H9    
    17     18     36      1    1.0876e+02    4.0242e+02 ;     N3 - C12    - H10   
    17     25     24      1    1.2367e+02    5.7488e+02 ;     N3 - C19    - C18   
    17     25     26      1    1.1746e+02    6.2843e+02 ;     N3 - C19    - O2    
    18     17     25      1    1.2234e+02    6.3630e+02 ;    C12 - N3     - C19   
    18     19     20      1    1.2083e+02    5.0827e+02 ;    C12 - C13    - C14   
    18     19     24      1    1.2083e+02    5.0827e+02 ;    C12 - C13    - C18   
    19     18     35      1    1.0960e+02    3.6660e+02 ;    C13 - C12    - H9    
    19     18     36      1    1.0960e+02    3.6660e+02 ;    C13 - C12    - H10   
    19     20     21      1    1.2002e+02    5.3279e+02 ;    C13 - C14    - C15   
    19     20     37      1    1.1988e+02    3.7572e+02 ;    C13 - C14    - H11   
    19     24     23      1    1.2002e+02    5.3279e+02 ;    C13 - C18    - C17   
    19     24     25      1    1.2084e+02    5.3564e+02 ;    C13 - C18    - C19   
    20     19     24      1    1.2002e+02    5.3279e+02 ;    C14 - C13    - C18   
    20     21     22      1    1.2002e+02    5.3279e+02 ;    C14 - C15    - C16   
    20     21     38      1    1.1988e+02    3.7572e+02 ;    C14 - C15    - H12   
    21     20     37      1    1.1988e+02    3.7572e+02 ;    C15 - C14    - H11   
    21     22     23      1    1.2002e+02    5.3279e+02 ;    C15 - C16    - C17   
    21     22     39      1    1.1988e+02    3.7572e+02 ;    C15 - C16    - H13   
    22     21     38      1    1.1988e+02    3.7572e+02 ;    C16 - C15    - H12   
    22     23     24      1    1.2002e+02    5.3279e+02 ;    C16 - C17    - C18   
    22     23     40      1    1.1988e+02    3.7572e+02 ;    C16 - C17    - H14   
    23     22     39      1    1.1988e+02    3.7572e+02 ;    C17 - C16    - H13   
    23     24     25      1    1.2084e+02    5.3564e+02 ;    C17 - C18    - C19   
    24     23     40      1    1.1988e+02    3.7572e+02 ;    C18 - C17    - H14   
    24     25     26      1    1.2359e+02    6.0919e+02 ;    C18 - C19    - O2    
    35     18     36      1    1.0855e+02    2.9824e+02 ;     H9 - C12    - H10   

[ dihedrals ] ; propers
; for gromacs 4.5 or higher, using funct 9
;    i      j      k      l   func   phase     kd      pn
     1      2      3      4      9   180.00   2.71960   2 ;     O1-    C1-    N1-    C2
     1      2      3     27      9   180.00   2.71960   2 ;     O1-    C1-    N1-    H1
     1      2      9     10      9     0.00   0.00000   0 ;     O1-    C1-    C5-    C6
     1      2      9     17      9     0.00   0.00000   0 ;     O1-    C1-    C5-    N3
     1      2      9     30      9     0.00   0.00000   0 ;     O1-    C1-    C5-    H4
     2      3      4      5      9   180.00   2.71960   2 ;     C1-    N1-    C2-    N2
     2      3      4      8      9   180.00   2.71960   2 ;     C1-    N1-    C2-    S1
     2      9     10     11      9   180.00   0.00000   2 ;     C1-    C5-    C6-    C7
     2      9     10     16      9   180.00   0.00000   2 ;     C1-    C5-    C6-   C11
     2      9     17     18      9     0.00   0.00000   0 ;     C1-    C5-    N3-   C12
     2      9     17     25      9     0.00   0.00000   0 ;     C1-    C5-    N3-   C19
     3      2      9     10      9     0.00   0.00000   0 ;     N1-    C1-    C5-    C6
     3      2      9     17      9     0.00   0.00000   0 ;     N1-    C1-    C5-    N3
     3      2      9     30      9     0.00   0.00000   0 ;     N1-    C1-    C5-    H4
     3      4      5      6      9   180.00  17.36360   2 ;     N1-    C2-    N2-    C3
     3      4      8      7      9   180.00   4.60240   2 ;     N1-    C2-    S1-    C4
     4      3      2      9      9   180.00   2.71960   2 ;     C2-    N1-    C1-    C5
     4      5      6      7      9   180.00  17.36360   2 ;     C2-    N2-    C3-    C4
     4      5      6     28      9   180.00  17.36360   2 ;     C2-    N2-    C3-    H2
     4      8      7      6      9   180.00   4.60240   2 ;     C2-    S1-    C4-    C3
     4      8      7     29      9   180.00   4.60240   2 ;     C2-    S1-    C4-    H3
     5      4      3     27      9   180.00   2.71960   2 ;     N2-    C2-    N1-    H1
     5      4      8      7      9   180.00   4.60240   2 ;     N2-    C2-    S1-    C4
     5      6      7      8      9   180.00  27.82360   2 ;     N2-    C3-    C4-    S1
     5      6      7     29      9   180.00  27.82360   2 ;     N2-    C3-    C4-    H3
     6      5      4      8      9   180.00  17.36360   2 ;     C3-    N2-    C2-    S1
     8      4      3     27      9   180.00   2.71960   2 ;     S1-    C2-    N1-    H1
     8      7      6     28      9   180.00  27.82360   2 ;     S1-    C4-    C3-    H2
     9      2      3     27      9   180.00   2.71960   2 ;     C5-    C1-    N1-    H1
     9     10     11     12      9   180.00  15.16700   2 ;     C5-    C6-    C7-    C8
     9     10     11     31      9   180.00  15.16700   2 ;     C5-    C6-    C7-    H5
     9     10     16     15      9   180.00  15.16700   2 ;     C5-    C6-   C11-   C10
     9     10     16     34      9   180.00  15.16700   2 ;     C5-    C6-   C11-    H8
     9     17     18     19      9     0.00   0.00000   0 ;     C5-    N3-   C12-   C13
     9     17     18     35      9     0.00   0.00000   0 ;     C5-    N3-   C12-    H9
     9     17     18     36      9     0.00   0.00000   0 ;     C5-    N3-   C12-   H10
     9     17     25     24      9   180.00   2.71960   2 ;     C5-    N3-   C19-   C18
     9     17     25     26      9   180.00   2.71960   2 ;     C5-    N3-   C19-    O2
    10      9     17     18      9     0.00   0.00000   0 ;     C6-    C5-    N3-   C12
    10      9     17     25      9     0.00   0.00000   0 ;     C6-    C5-    N3-   C19
    10     11     12     13      9   180.00  15.16700   2 ;     C6-    C7-    C8-    C9
    10     11     12     32      9   180.00  15.16700   2 ;     C6-    C7-    C8-    H6
    10     16     15     13      9   180.00  15.16700   2 ;     C6-   C11-   C10-    C9
    10     16     15     33      9   180.00  15.16700   2 ;     C6-   C11-   C10-    H7
    11     10      9     17      9     0.00   0.00000   0 ;     C7-    C6-    C5-    N3
    11     10      9     30      9     0.00   0.00000   0 ;     C7-    C6-    C5-    H4
    11     10     16     15      9   180.00  15.16700   2 ;     C7-    C6-   C11-   C10
    11     10     16     34      9   180.00  15.16700   2 ;     C7-    C6-   C11-    H8
    11     12     13     14      9   180.00  15.16700   2 ;     C7-    C8-    C9-    F1
    11     12     13     15      9   180.00  15.16700   2 ;     C7-    C8-    C9-   C10
    12     11     10     16      9   180.00  15.16700   2 ;     C8-    C7-    C6-   C11
    12     13     15     16      9   180.00  15.16700   2 ;     C8-    C9-   C10-   C11
    12     13     15     33      9   180.00  15.16700   2 ;     C8-    C9-   C10-    H7
    13     12     11     31      9   180.00  15.16700   2 ;     C9-    C8-    C7-    H5
    13     15     16     34      9   180.00  15.16700   2 ;     C9-   C10-   C11-    H8
    14     13     12     32      9   180.00  15.16700   2 ;     F1-    C9-    C8-    H6
    14     13     15     16      9   180.00  15.16700   2 ;     F1-    C9-   C10-   C11
    14     13     15     33      9   180.00  15.16700   2 ;     F1-    C9-   C10-    H7
    15     13     12     32      9   180.00  15.16700   2 ;    C10-    C9-    C8-    H6
    16     10      9     17      9     0.00   0.00000   0 ;    C11-    C6-    C5-    N3
    16     10      9     30      9     0.00   0.00000   0 ;    C11-    C6-    C5-    H4
    16     10     11     31      9   180.00  15.16700   2 ;    C11-    C6-    C7-    H5
    17     18     19     20      9     0.00   0.00000   0 ;     N3-   C12-   C13-   C14
    17     18     19     24      9     0.00   0.00000   0 ;     N3-   C12-   C13-   C18
    17     25     24     19      9   180.00   2.92880   2 ;     N3-   C19-   C18-   C13
    17     25     24     23      9   180.00   2.92880   2 ;     N3-   C19-   C18-   C17
    18     17      9     30      9     0.00   0.00000   0 ;    C12-    N3-    C5-    H4
    18     17     25     24      9   180.00   2.71960   2 ;    C12-    N3-   C19-   C18
    18     17     25     26      9   180.00   2.71960   2 ;    C12-    N3-   C19-    O2
    18     19     20     21      9   180.00  15.16700   2 ;    C12-   C13-   C14-   C15
    18     19     20     37      9   180.00  15.16700   2 ;    C12-   C13-   C14-   H11
    18     19     24     23      9   180.00  15.16700   2 ;    C12-   C13-   C18-   C17
    18     19     24     25      9   180.00  15.16700   2 ;    C12-   C13-   C18-   C19
    19     18     17     25      9     0.00   0.00000   0 ;    C13-   C12-    N3-   C19
    19     20     21     22      9   180.00  15.16700   2 ;    C13-   C14-   C15-   C16
    19     20     21     38      9   180.00  15.16700   2 ;    C13-   C14-   C15-   H12
    19     24     23     22      9   180.00  15.16700   2 ;    C13-   C18-   C17-   C16
    19     24     23     40      9   180.00  15.16700   2 ;    C13-   C18-   C17-   H14
    19     24     25     26      9   180.00   2.92880   2 ;    C13-   C18-   C19-    O2
    20     19     18     35      9     0.00   0.00000   0 ;    C14-   C13-   C12-    H9
    20     19     18     36      9     0.00   0.00000   0 ;    C14-   C13-   C12-   H10
    20     19     24     23      9   180.00  15.16700   2 ;    C14-   C13-   C18-   C17
    20     19     24     25      9   180.00  15.16700   2 ;    C14-   C13-   C18-   C19
    20     21     22     23      9   180.00  15.16700   2 ;    C14-   C15-   C16-   C17
    20     21     22     39      9   180.00  15.16700   2 ;    C14-   C15-   C16-   H13
    21     20     19     24      9   180.00  15.16700   2 ;    C15-   C14-   C13-   C18
    21     22     23     24      9   180.00  15.16700   2 ;    C15-   C16-   C17-   C18
    21     22     23     40      9   180.00  15.16700   2 ;    C15-   C16-   C17-   H14
    22     21     20     37      9   180.00  15.16700   2 ;    C16-   C15-   C14-   H11
    22     23     24     25      9   180.00  15.16700   2 ;    C16-   C17-   C18-   C19
    23     22     21     38      9   180.00  15.16700   2 ;    C17-   C16-   C15-   H12
    23     24     25     26      9   180.00   2.92880   2 ;    C17-   C18-   C19-    O2
    24     19     18     35      9     0.00   0.00000   0 ;    C18-   C13-   C12-    H9
    24     19     18     36      9     0.00   0.00000   0 ;    C18-   C13-   C12-   H10
    24     19     20     37      9   180.00  15.16700   2 ;    C18-   C13-   C14-   H11
    24     23     22     39      9   180.00  15.16700   2 ;    C18-   C17-   C16-   H13
    25     17      9     30      9     0.00   0.00000   0 ;    C19-    N3-    C5-    H4
    25     17     18     35      9     0.00   0.00000   0 ;    C19-    N3-   C12-    H9
    25     17     18     36      9     0.00   0.00000   0 ;    C19-    N3-   C12-   H10
    25     24     23     40      9   180.00  15.16700   2 ;    C19-   C18-   C17-   H14
    28      6      7     29      9   180.00  27.82360   2 ;     H2-    C3-    C4-    H3
    31     11     12     32      9   180.00  15.16700   2 ;     H5-    C7-    C8-    H6
    33     15     16     34      9   180.00  15.16700   2 ;     H7-   C10-   C11-    H8
    37     20     21     38      9   180.00  15.16700   2 ;    H11-   C14-   C15-   H12
    38     21     22     39      9   180.00  15.16700   2 ;    H12-   C15-   C16-   H13
    39     22     23     40      9   180.00  15.16700   2 ;    H13-   C16-   C17-   H14

[ dihedrals ] ; impropers
; treated as propers in GROMACS to use correct AMBER analytical function
;    i      j      k      l   func   phase     kd      pn
     1      2      3      9      4   180.00   4.60240   2 ;     O1-    C1-    N1-    C5
     2      4      3     27      4   180.00   4.60240   2 ;     C1-    C2-    N1-    H1
     3      5      4      8      4   180.00   4.60240   2 ;     N1-    N2-    C2-    S1
     6     29      7      8      4   180.00   4.60240   2 ;     C3-    H3-    C4-    S1
     7     28      6      5      4   180.00   4.60240   2 ;     C4-    H2-    C3-    N2
    10     12     11     31      4   180.00   4.60240   2 ;     C6-    C8-    C7-    H5
    10     15     16     34      4   180.00   4.60240   2 ;     C6-   C10-   C11-    H8
    11     13     12     32      4   180.00   4.60240   2 ;     C7-    C9-    C8-    H6
    11     16     10      9      4   180.00   4.60240   2 ;     C7-   C11-    C6-    C5
    12     15     13     14      4   180.00   4.60240   2 ;     C8-   C10-    C9-    F1
    13     16     15     33      4   180.00   4.60240   2 ;     C9-   C11-   C10-    H7
    18     20     19     24      4   180.00   4.60240   2 ;    C12-   C14-   C13-   C18
    19     21     20     37      4   180.00   4.60240   2 ;    C13-   C15-   C14-   H11
    19     23     24     25      4   180.00   4.60240   2 ;    C13-   C17-   C18-   C19
    20     22     21     38      4   180.00   4.60240   2 ;    C14-   C16-   C15-   H12
    21     23     22     39      4   180.00   4.60240   2 ;    C15-   C17-   C16-   H13
    22     24     23     40      4   180.00   4.60240   2 ;    C16-   C18-   C17-   H14
    24     17     25     26      4   180.00   4.60240   2 ;    C18-    N3-   C19-    O2
    25      9     17     18      4   180.00   4.60240   2 ;    C19-    C5-    N3-   C12

[ system ]
 JBJ-04-125-02

[ molecules ]
; Compound        nmols
 JBJ-04-125-02    1     
