integrator   = md
nsteps       = 25000000
dt           = 0.002
nstxout-compressed = 50000
nstenergy    = 5000
nstlog       = 5000
continuation = yes
constraint_algorithm = lincs
constraints  = h-bonds
lincs_iter   = 1
lincs_order  = 4
cutoff-scheme = Verlet
nstlist      = 10
ns_type      = grid
coulombtype  = PME
rcoulomb     = 1.0
rvdw         = 1.0
pbc          = xyz
tcoupl       = V-rescale
tc-grps      = System
tau_t        = 0.1
ref_t        = 310
pcoupl       = Parrinello-Rahman
pcoupltype   = isotropic
tau_p        = 2.0
ref_p        = 1.0
compressibility = 4.5e-5
gen_vel      = no
