integrator   = md
nsteps       = 50000
dt           = 0.002
nstxout-compressed = 5000
nstenergy    = 5000
nstlog       = 5000
continuation = no
constraint_algorithm = lincs
constraints  = h-bonds
lincs_iter   = 1
lincs_order  = 4
cutoff-scheme = Verlet
nstlist      = 10
ns_type      = grid
coulombtype  = PME
rcoulomb     = 1.0
rvdw         = 1.0
pbc          = xyz
tcoupl       = V-rescale
tc-grps      = System
tau_t        = 0.1
ref_t        = 310
pcoupl       = no
gen_vel      = yes
gen_temp     = 310
gen_seed     = -1
