[ moleculetype ]
;name            nrexcl
 EA1001           3

[ atoms ]
;   nr  type  resi  res  atom  cgnr     charge      mass       ; qtot   bond_type
     1    o     1   UNL    O1    1    -0.347000     16.00000 ; qtot -0.347
     2   c2     1   UNL    C1    2     0.280000     12.01000 ; qtot -0.067
     3    n     1   UNL    N1    3    -0.288000     14.01000 ; qtot -0.355
     4   c2     1   UNL    C2    4    -0.168000     12.01000 ; qtot -0.523
     5   n2     1   UNL    N2    5    -0.157000     14.01000 ; qtot -0.680
     6   c2     1   UNL    C3    6    -0.112000     12.01000 ; qtot -0.792
     7   c2     1   UNL    C4    7    -0.521000     12.01000 ; qtot -1.313
     8   ss     1   UNL    S1    8     0.585000     32.06000 ; qtot -0.728
     9   c3     1   UNL    C5    9     0.091000     12.01000 ; qtot -0.637
    10   ca     1   UNL    C6   10    -0.102000     12.01000 ; qtot -0.739
    11   ca     1   UNL    C7   11    -0.099000     12.01000 ; qtot -0.838
    12   ca     1   UNL    C8   12    -0.136000     12.01000 ; qtot -0.974
    13   ca     1   UNL    C9   13    -0.113000     12.01000 ; qtot -1.087
    14   ca     1   UNL   C10   14    -0.136000     12.01000 ; qtot -1.223
    15   ca     1   UNL   C11   15    -0.099000     12.01000 ; qtot -1.322
    16    n     1   UNL    N3   16    -0.357000     14.01000 ; qtot -1.679
    17   c3     1   UNL   C12   17     0.017000     12.01000 ; qtot -1.662
    18   ca     1   UNL   C13   18    -0.072000     12.01000 ; qtot -1.734
    19   ca     1   UNL   C14   19    -0.119000     12.01000 ; qtot -1.853
    20   ca     1   UNL   C15   20    -0.100000     12.01000 ; qtot -1.953
    21   ca     1   UNL   C16   21    -0.142000     12.01000 ; qtot -2.095
    22   ca     1   UNL   C17   22    -0.049000     12.01000 ; qtot -2.144
    23   ca     1   UNL   C18   23    -0.134000     12.01000 ; qtot -2.278
    24   c2     1   UNL   C19   24     0.360000     12.01000 ; qtot -1.918
    25    o     1   UNL    O2   25    -0.351000     16.00000 ; qtot -2.269
    26   hn     1   UNL    H1   26     0.278000      1.00800 ; qtot -1.991
    27   h4     1   UNL    H2   27     0.178000      1.00800 ; qtot -1.813
    28   h4     1   UNL    H3   28     0.179000      1.00800 ; qtot -1.634
    29   h1     1   UNL    H4   29     0.134000      1.00800 ; qtot -1.500
    30   ha     1   UNL    H5   30     0.143500      1.00800 ; qtot -1.357
    31   ha     1   UNL    H6   31     0.136500      1.00800 ; qtot -1.220
    32   ha     1   UNL    H7   32     0.135000      1.00800 ; qtot -1.085
    33   ha     1   UNL    H8   33     0.136500      1.00800 ; qtot -0.949
    34   ha     1   UNL    H9   34     0.143500      1.00800 ; qtot -0.805
    35   h1     1   UNL   H10   35     0.113000      1.00800 ; qtot -0.692
    36   h1     1   UNL   H11   36     0.113000      1.00800 ; qtot -0.579
    37   ha     1   UNL   H12   37     0.143000      1.00800 ; qtot -0.436
    38   ha     1   UNL   H13   38     0.138000      1.00800 ; qtot -0.298
    39   ha     1   UNL   H14   39     0.141000      1.00800 ; qtot -0.157
    40   ha     1   UNL   H15   40     0.157000      1.00800 ; qtot -0.000

[ bonds ]
;   ai     aj funct   r             k
     1      2   1    1.2249e-01    4.8317e+05 ;     O1 - C1    
     2      3   1    1.4001e-01    2.6265e+05 ;     C1 - N1    
     2      9   1    1.5088e-01    2.0786e+05 ;     C1 - C5    
     3      4   1    1.4001e-01    2.6265e+05 ;     N1 - C2    
     3     26   1    1.0130e-01    4.4124e+05 ;     N1 - H1    
     4      5   1    1.2809e-01    3.9831e+05 ;     C2 - N2    
     4      8   1    1.7842e-01    1.7887e+05 ;     C2 - S1    
     5      6   1    1.2809e-01    3.9831e+05 ;     N2 - C3    
     6      7   1    1.3379e-01    3.6484e+05 ;     C3 - C4    
     6     27   1    1.0865e-01    3.0117e+05 ;     C3 - H2    
     7      8   1    1.7842e-01    1.7887e+05 ;     C4 - S1    
     7     28   1    1.0865e-01    3.0117e+05 ;     C4 - H3    
     9     10   1    1.5147e-01    2.0410e+05 ;     C5 - C6    
     9     16   1    1.4643e-01    2.1293e+05 ;     C5 - N3    
     9     29   1    1.0969e-01    2.8804e+05 ;     C5 - H4    
    10     11   1    1.3986e-01    2.9644e+05 ;     C6 - C7    
    10     15   1    1.3986e-01    2.9644e+05 ;     C6 - C11   
    11     12   1    1.3986e-01    2.9644e+05 ;     C7 - C8    
    11     30   1    1.0860e-01    3.0183e+05 ;     C7 - H5    
    12     13   1    1.3986e-01    2.9644e+05 ;     C8 - C9    
    12     31   1    1.0860e-01    3.0183e+05 ;     C8 - H6    
    13     14   1    1.3986e-01    2.9644e+05 ;     C9 - C10   
    13     32   1    1.0860e-01    3.0183e+05 ;     C9 - H7    
    14     15   1    1.3986e-01    2.9644e+05 ;    C10 - C11   
    14     33   1    1.0860e-01    3.0183e+05 ;    C10 - H8    
    15     34   1    1.0860e-01    3.0183e+05 ;    C11 - H9    
    16     17   1    1.4643e-01    2.1293e+05 ;     N3 - C12   
    16     24   1    1.4001e-01    2.6265e+05 ;     N3 - C19   
    17     18   1    1.5147e-01    2.0410e+05 ;    C12 - C13   
    17     35   1    1.0969e-01    2.8804e+05 ;    C12 - H10   
    17     36   1    1.0969e-01    2.8804e+05 ;    C12 - H11   
    18     19   1    1.3986e-01    2.9644e+05 ;    C13 - C14   
    18     23   1    1.3986e-01    2.9644e+05 ;    C13 - C18   
    19     20   1    1.3986e-01    2.9644e+05 ;    C14 - C15   
    19     37   1    1.0860e-01    3.0183e+05 ;    C14 - H12   
    20     21   1    1.3986e-01    2.9644e+05 ;    C15 - C16   
    20     38   1    1.0860e-01    3.0183e+05 ;    C15 - H13   
    21     22   1    1.3986e-01    2.9644e+05 ;    C16 - C17   
    21     39   1    1.0860e-01    3.0183e+05 ;    C16 - H14   
    22     23   1    1.3986e-01    2.9644e+05 ;    C17 - C18   
    22     40   1    1.0860e-01    3.0183e+05 ;    C17 - H15   
    23     24   1    1.3739e-01    3.2221e+05 ;    C18 - C19   
    24     25   1    1.2249e-01    4.8317e+05 ;    C19 - O2    

[ pairs ]
;   ai     aj    funct
     1      4      1 ;     O1 - C2    
     1     10      1 ;     O1 - C6    
     1     16      1 ;     O1 - N3    
     1     26      1 ;     O1 - H1    
     1     29      1 ;     O1 - H4    
     2      5      1 ;     C1 - N2    
     2      8      1 ;     C1 - S1    
     2     11      1 ;     C1 - C7    
     2     15      1 ;     C1 - C11   
     2     17      1 ;     C1 - C12   
     2     24      1 ;     C1 - C19   
     3      6      1 ;     N1 - C3    
     3      7      1 ;     N1 - C4    
     3     10      1 ;     N1 - C6    
     3     16      1 ;     N1 - N3    
     3     29      1 ;     N1 - H4    
     4      9      1 ;     C2 - C5    
     4     27      1 ;     C2 - H2    
     4     28      1 ;     C2 - H3    
     5     26      1 ;     N2 - H1    
     5     28      1 ;     N2 - H3    
     8     26      1 ;     S1 - H1    
     8     27      1 ;     S1 - H2    
     9     12      1 ;     C5 - C8    
     9     14      1 ;     C5 - C10   
     9     18      1 ;     C5 - C13   
     9     23      1 ;     C5 - C18   
     9     25      1 ;     C5 - O2    
     9     26      1 ;     C5 - H1    
     9     30      1 ;     C5 - H5    
     9     34      1 ;     C5 - H9    
     9     35      1 ;     C5 - H10   
     9     36      1 ;     C5 - H11   
    10     13      1 ;     C6 - C9    
    10     17      1 ;     C6 - C12   
    10     24      1 ;     C6 - C19   
    10     31      1 ;     C6 - H6    
    10     33      1 ;     C6 - H8    
    11     14      1 ;     C7 - C10   
    11     16      1 ;     C7 - N3    
    11     29      1 ;     C7 - H4    
    11     32      1 ;     C7 - H7    
    11     34      1 ;     C7 - H9    
    12     15      1 ;     C8 - C11   
    12     33      1 ;     C8 - H8    
    13     30      1 ;     C9 - H5    
    13     34      1 ;     C9 - H9    
    14     31      1 ;    C10 - H6    
    15     16      1 ;    C11 - N3    
    15     29      1 ;    C11 - H4    
    15     30      1 ;    C11 - H5    
    15     32      1 ;    C11 - H7    
    16     19      1 ;     N3 - C14   
    16     22      1 ;     N3 - C17   
    17     20      1 ;    C12 - C15   
    17     22      1 ;    C12 - C17   
    17     25      1 ;    C12 - O2    
    17     29      1 ;    C12 - H4    
    17     37      1 ;    C12 - H12   
    18     21      1 ;    C13 - C16   
    18     25      1 ;    C13 - O2    
    18     38      1 ;    C13 - H13   
    18     40      1 ;    C13 - H15   
    19     22      1 ;    C14 - C17   
    19     24      1 ;    C14 - C19   
    19     35      1 ;    C14 - H10   
    19     36      1 ;    C14 - H11   
    19     39      1 ;    C14 - H14   
    20     23      1 ;    C15 - C18   
    20     40      1 ;    C15 - H15   
    21     24      1 ;    C16 - C19   
    21     37      1 ;    C16 - H12   
    22     25      1 ;    C17 - O2    
    22     38      1 ;    C17 - H13   
    23     35      1 ;    C18 - H10   
    23     36      1 ;    C18 - H11   
    23     37      1 ;    C18 - H12   
    23     39      1 ;    C18 - H14   
    24     29      1 ;    C19 - H4    
    24     35      1 ;    C19 - H10   
    24     36      1 ;    C19 - H11   
    24     40      1 ;    C19 - H15   
    27     28      1 ;     H2 - H3    
    30     31      1 ;     H5 - H6    
    31     32      1 ;     H6 - H7    
    32     33      1 ;     H7 - H8    
    33     34      1 ;     H8 - H9    
    37     38      1 ;    H12 - H13   
    38     39      1 ;    H13 - H14   
    39     40      1 ;    H14 - H15   

[ angles ]
;   ai     aj     ak    funct   theta         cth
     1      2      3      1    1.1746e+02    6.2843e+02 ;     O1 - C1     - N1    
     1      2      9      1    1.2286e+02    6.4501e+02 ;     O1 - C1     - C5    
     2      3      4      1    1.2332e+02    6.4894e+02 ;     C1 - N1     - C2    
     2      3     26      1    1.1790e+02    4.0166e+02 ;     C1 - N1     - H1    
     2      9     10      1    1.1305e+02    5.0794e+02 ;     C1 - C5     - C6    
     2      9     16      1    1.1255e+02    5.4928e+02 ;     C1 - C5     - N3    
     2      9     29      1    1.0996e+02    3.6727e+02 ;     C1 - C5     - H4    
     3      2      9      1    1.2152e+02    5.3898e+02 ;     N1 - C1     - C5    
     3      4      5      1    1.2172e+02    6.1957e+02 ;     N1 - C2     - N2    
     3      4      8      1    1.1128e+02    5.8216e+02 ;     N1 - C2     - S1    
     4      3     26      1    1.1790e+02    4.0166e+02 ;     C2 - N1     - H1    
     4      5      6      1    1.1818e+02    6.1254e+02 ;     C2 - N2     - C3    
     4      8      7      1    9.9700e+01    7.9981e+02 ;     C2 - S1     - C4    
     5      4      8      1    1.2265e+02    5.6199e+02 ;     N2 - C2     - S1    
     5      6      7      1    1.2601e+02    7.5145e+02 ;     N2 - C3     - C4    
     5      6     27      1    1.2105e+02    4.2426e+02 ;     N2 - C3     - H2    
     6      7      8      1    1.2219e+02    5.2752e+02 ;     C3 - C4     - S1    
     6      7     28      1    1.2272e+02    3.8451e+02 ;     C3 - C4     - H3    
     7      6     27      1    1.2272e+02    3.8451e+02 ;     C4 - C3     - H2    
     8      7     28      1    1.1627e+02    3.5179e+02 ;     S1 - C4     - H3    
     9     10     11      1    1.2083e+02    5.0827e+02 ;     C5 - C6     - C7    
     9     10     15      1    1.2083e+02    5.0827e+02 ;     C5 - C6     - C11   
     9     16     17      1    1.1675e+02    6.3773e+02 ;     C5 - N3     - C12   
     9     16     24      1    1.2234e+02    6.3630e+02 ;     C5 - N3     - C19   
    10      9     16      1    1.1351e+02    5.4584e+02 ;     C6 - C5     - N3    
    10      9     29      1    1.0960e+02    3.6660e+02 ;     C6 - C5     - H4    
    10     11     12      1    1.2002e+02    5.3279e+02 ;     C6 - C7     - C8    
    10     11     30      1    1.1988e+02    3.7572e+02 ;     C6 - C7     - H5    
    10     15     14      1    1.2002e+02    5.3279e+02 ;     C6 - C11    - C10   
    10     15     34      1    1.1988e+02    3.7572e+02 ;     C6 - C11    - H9    
    11     10     15      1    1.2002e+02    5.3279e+02 ;     C7 - C6     - C11   
    11     12     13      1    1.2002e+02    5.3279e+02 ;     C7 - C8     - C9    
    11     12     31      1    1.1988e+02    3.7572e+02 ;     C7 - C8     - H6    
    12     11     30      1    1.1988e+02    3.7572e+02 ;     C8 - C7     - H5    
    12     13     14      1    1.2002e+02    5.3279e+02 ;     C8 - C9     - C10   
    12     13     32      1    1.1988e+02    3.7572e+02 ;     C8 - C9     - H7    
    13     12     31      1    1.1988e+02    3.7572e+02 ;     C9 - C8     - H6    
    13     14     15      1    1.2002e+02    5.3279e+02 ;     C9 - C10    - C11   
    13     14     33      1    1.1988e+02    3.7572e+02 ;     C9 - C10    - H8    
    14     13     32      1    1.1988e+02    3.7572e+02 ;    C10 - C9     - H7    
    14     15     34      1    1.1988e+02    3.7572e+02 ;    C10 - C11    - H9    
    15     14     33      1    1.1988e+02    3.7572e+02 ;    C11 - C10    - H8    
    16      9     29      1    1.0876e+02    4.0242e+02 ;     N3 - C5     - H4    
    16     17     18      1    1.1351e+02    5.4584e+02 ;     N3 - C12    - C13   
    16     17     35      1    1.0876e+02    4.0242e+02 ;     N3 - C12    - H10   
    16     17     36      1    1.0876e+02    4.0242e+02 ;     N3 - C12    - H11   
    16     24     23      1    1.2367e+02    5.7488e+02 ;     N3 - C19    - C18   
    16     24     25      1    1.1746e+02    6.2843e+02 ;     N3 - C19    - O2    
    17     16     24      1    1.2234e+02    6.3630e+02 ;    C12 - N3     - C19   
    17     18     19      1    1.2083e+02    5.0827e+02 ;    C12 - C13    - C14   
    17     18     23      1    1.2083e+02    5.0827e+02 ;    C12 - C13    - C18   
    18     17     35      1    1.0960e+02    3.6660e+02 ;    C13 - C12    - H10   
    18     17     36      1    1.0960e+02    3.6660e+02 ;    C13 - C12    - H11   
    18     19     20      1    1.2002e+02    5.3279e+02 ;    C13 - C14    - C15   
    18     19     37      1    1.1988e+02    3.7572e+02 ;    C13 - C14    - H12   
    18     23     22      1    1.2002e+02    5.3279e+02 ;    C13 - C18    - C17   
    18     23     24      1    1.2084e+02    5.3564e+02 ;    C13 - C18    - C19   
    19     18     23      1    1.2002e+02    5.3279e+02 ;    C14 - C13    - C18   
    19     20     21      1    1.2002e+02    5.3279e+02 ;    C14 - C15    - C16   
    19     20     38      1    1.1988e+02    3.7572e+02 ;    C14 - C15    - H13   
    20     19     37      1    1.1988e+02    3.7572e+02 ;    C15 - C14    - H12   
    20     21     22      1    1.2002e+02    5.3279e+02 ;    C15 - C16    - C17   
    20     21     39      1    1.1988e+02    3.7572e+02 ;    C15 - C16    - H14   
    21     20     38      1    1.1988e+02    3.7572e+02 ;    C16 - C15    - H13   
    21     22     23      1    1.2002e+02    5.3279e+02 ;    C16 - C17    - C18   
    21     22     40      1    1.1988e+02    3.7572e+02 ;    C16 - C17    - H15   
    22     21     39      1    1.1988e+02    3.7572e+02 ;    C17 - C16    - H14   
    22     23     24      1    1.2084e+02    5.3564e+02 ;    C17 - C18    - C19   
    23     22     40      1    1.1988e+02    3.7572e+02 ;    C18 - C17    - H15   
    23     24     25      1    1.2359e+02    6.0919e+02 ;    C18 - C19    - O2    
    35     17     36      1    1.0855e+02    2.9824e+02 ;    H10 - C12    - H11   

[ dihedrals ] ; propers
; for gromacs 4.5 or higher, using funct 9
;    i      j      k      l   func   phase     kd      pn
     1      2      3      4      9   180.00   2.71960   2 ;     O1-    C1-    N1-    C2
     1      2      3     26      9   180.00   2.71960   2 ;     O1-    C1-    N1-    H1
     1      2      9     10      9     0.00   0.00000   0 ;     O1-    C1-    C5-    C6
     1      2      9     16      9     0.00   0.00000   0 ;     O1-    C1-    C5-    N3
     1      2      9     29      9     0.00   0.00000   0 ;     O1-    C1-    C5-    H4
     2      3      4      5      9   180.00   2.71960   2 ;     C1-    N1-    C2-    N2
     2      3      4      8      9   180.00   2.71960   2 ;     C1-    N1-    C2-    S1
     2      9     10     11      9   180.00   0.00000   2 ;     C1-    C5-    C6-    C7
     2      9     10     15      9   180.00   0.00000   2 ;     C1-    C5-    C6-   C11
     2      9     16     17      9     0.00   0.00000   0 ;     C1-    C5-    N3-   C12
     2      9     16     24      9     0.00   0.00000   0 ;     C1-    C5-    N3-   C19
     3      2      9     10      9     0.00   0.00000   0 ;     N1-    C1-    C5-    C6
     3      2      9     16      9     0.00   0.00000   0 ;     N1-    C1-    C5-    N3
     3      2      9     29      9     0.00   0.00000   0 ;     N1-    C1-    C5-    H4
     3      4      5      6      9   180.00  17.36360   2 ;     N1-    C2-    N2-    C3
     3      4      8      7      9   180.00   4.60240   2 ;     N1-    C2-    S1-    C4
     4      3      2      9      9   180.00   2.71960   2 ;     C2-    N1-    C1-    C5
     4      5      6      7      9   180.00  17.36360   2 ;     C2-    N2-    C3-    C4
     4      5      6     27      9   180.00  17.36360   2 ;     C2-    N2-    C3-    H2
     4      8      7      6      9   180.00   4.60240   2 ;     C2-    S1-    C4-    C3
     4      8      7     28      9   180.00   4.60240   2 ;     C2-    S1-    C4-    H3
     5      4      3     26      9   180.00   2.71960   2 ;     N2-    C2-    N1-    H1
     5      4      8      7      9   180.00   4.60240   2 ;     N2-    C2-    S1-    C4
     5      6      7      8      9   180.00  27.82360   2 ;     N2-    C3-    C4-    S1
     5      6      7     28      9   180.00  27.82360   2 ;     N2-    C3-    C4-    H3
     6      5      4      8      9   180.00  17.36360   2 ;     C3-    N2-    C2-    S1
     8      4      3     26      9   180.00   2.71960   2 ;     S1-    C2-    N1-    H1
     8      7      6     27      9   180.00  27.82360   2 ;     S1-    C4-    C3-    H2
     9      2      3     26      9   180.00   2.71960   2 ;     C5-    C1-    N1-    H1
     9     10     11     12      9   180.00  15.16700   2 ;     C5-    C6-    C7-    C8
     9     10     11     30      9   180.00  15.16700   2 ;     C5-    C6-    C7-    H5
     9     10     15     14      9   180.00  15.16700   2 ;     C5-    C6-   C11-   C10
     9     10     15     34      9   180.00  15.16700   2 ;     C5-    C6-   C11-    H9
     9     16     17     18      9     0.00   0.00000   0 ;     C5-    N3-   C12-   C13
     9     16     17     35      9     0.00   0.00000   0 ;     C5-    N3-   C12-   H10
     9     16     17     36      9     0.00   0.00000   0 ;     C5-    N3-   C12-   H11
     9     16     24     23      9   180.00   2.71960   2 ;     C5-    N3-   C19-   C18
     9     16     24     25      9   180.00   2.71960   2 ;     C5-    N3-   C19-    O2
    10      9     16     17      9     0.00   0.00000   0 ;     C6-    C5-    N3-   C12
    10      9     16     24      9     0.00   0.00000   0 ;     C6-    C5-    N3-   C19
    10     11     12     13      9   180.00  15.16700   2 ;     C6-    C7-    C8-    C9
    10     11     12     31      9   180.00  15.16700   2 ;     C6-    C7-    C8-    H6
    10     15     14     13      9   180.00  15.16700   2 ;     C6-   C11-   C10-    C9
    10     15     14     33      9   180.00  15.16700   2 ;     C6-   C11-   C10-    H8
    11     10      9     16      9     0.00   0.00000   0 ;     C7-    C6-    C5-    N3
    11     10      9     29      9     0.00   0.00000   0 ;     C7-    C6-    C5-    H4
    11     10     15     14      9   180.00  15.16700   2 ;     C7-    C6-   C11-   C10
    11     10     15     34      9   180.00  15.16700   2 ;     C7-    C6-   C11-    H9
    11     12     13     14      9   180.00  15.16700   2 ;     C7-    C8-    C9-   C10
    11     12     13     32      9   180.00  15.16700   2 ;     C7-    C8-    C9-    H7
    12     11     10     15      9   180.00  15.16700   2 ;     C8-    C7-    C6-   C11
    12     13     14     15      9   180.00  15.16700   2 ;     C8-    C9-   C10-   C11
    12     13     14     33      9   180.00  15.16700   2 ;     C8-    C9-   C10-    H8
    13     12     11     30      9   180.00  15.16700   2 ;     C9-    C8-    C7-    H5
    13     14     15     34      9   180.00  15.16700   2 ;     C9-   C10-   C11-    H9
    14     13     12     31      9   180.00  15.16700   2 ;    C10-    C9-    C8-    H6
    15     10      9     16      9     0.00   0.00000   0 ;    C11-    C6-    C5-    N3
    15     10      9     29      9     0.00   0.00000   0 ;    C11-    C6-    C5-    H4
    15     10     11     30      9   180.00  15.16700   2 ;    C11-    C6-    C7-    H5
    15     14     13     32      9   180.00  15.16700   2 ;    C11-   C10-    C9-    H7
    16     17     18     19      9     0.00   0.00000   0 ;     N3-   C12-   C13-   C14
    16     17     18     23      9     0.00   0.00000   0 ;     N3-   C12-   C13-   C18
    16     24     23     18      9   180.00   2.92880   2 ;     N3-   C19-   C18-   C13
    16     24     23     22      9   180.00   2.92880   2 ;     N3-   C19-   C18-   C17
    17     16      9     29      9     0.00   0.00000   0 ;    C12-    N3-    C5-    H4
    17     16     24     23      9   180.00   2.71960   2 ;    C12-    N3-   C19-   C18
    17     16     24     25      9   180.00   2.71960   2 ;    C12-    N3-   C19-    O2
    17     18     19     20      9   180.00  15.16700   2 ;    C12-   C13-   C14-   C15
    17     18     19     37      9   180.00  15.16700   2 ;    C12-   C13-   C14-   H12
    17     18     23     22      9   180.00  15.16700   2 ;    C12-   C13-   C18-   C17
    17     18     23     24      9   180.00  15.16700   2 ;    C12-   C13-   C18-   C19
    18     17     16     24      9     0.00   0.00000   0 ;    C13-   C12-    N3-   C19
    18     19     20     21      9   180.00  15.16700   2 ;    C13-   C14-   C15-   C16
    18     19     20     38      9   180.00  15.16700   2 ;    C13-   C14-   C15-   H13
    18     23     22     21      9   180.00  15.16700   2 ;    C13-   C18-   C17-   C16
    18     23     22     40      9   180.00  15.16700   2 ;    C13-   C18-   C17-   H15
    18     23     24     25      9   180.00   2.92880   2 ;    C13-   C18-   C19-    O2
    19     18     17     35      9     0.00   0.00000   0 ;    C14-   C13-   C12-   H10
    19     18     17     36      9     0.00   0.00000   0 ;    C14-   C13-   C12-   H11
    19     18     23     22      9   180.00  15.16700   2 ;    C14-   C13-   C18-   C17
    19     18     23     24      9   180.00  15.16700   2 ;    C14-   C13-   C18-   C19
    19     20     21     22      9   180.00  15.16700   2 ;    C14-   C15-   C16-   C17
    19     20     21     39      9   180.00  15.16700   2 ;    C14-   C15-   C16-   H14
    20     19     18     23      9   180.00  15.16700   2 ;    C15-   C14-   C13-   C18
    20     21     22     23      9   180.00  15.16700   2 ;    C15-   C16-   C17-   C18
    20     21     22     40      9   180.00  15.16700   2 ;    C15-   C16-   C17-   H15
    21     20     19     37      9   180.00  15.16700   2 ;    C16-   C15-   C14-   H12
    21     22     23     24      9   180.00  15.16700   2 ;    C16-   C17-   C18-   C19
    22     21     20     38      9   180.00  15.16700   2 ;    C17-   C16-   C15-   H13
    22     23     24     25      9   180.00   2.92880   2 ;    C17-   C18-   C19-    O2
    23     18     17     35      9     0.00   0.00000   0 ;    C18-   C13-   C12-   H10
    23     18     17     36      9     0.00   0.00000   0 ;    C18-   C13-   C12-   H11
    23     18     19     37      9   180.00  15.16700   2 ;    C18-   C13-   C14-   H12
    23     22     21     39      9   180.00  15.16700   2 ;    C18-   C17-   C16-   H14
    24     16      9     29      9     0.00   0.00000   0 ;    C19-    N3-    C5-    H4
    24     16     17     35      9     0.00   0.00000   0 ;    C19-    N3-   C12-   H10
    24     16     17     36      9     0.00   0.00000   0 ;    C19-    N3-   C12-   H11
    24     23     22     40      9   180.00  15.16700   2 ;    C19-   C18-   C17-   H15
    27      6      7     28      9   180.00  27.82360   2 ;     H2-    C3-    C4-    H3
    30     11     12     31      9   180.00  15.16700   2 ;     H5-    C7-    C8-    H6
    31     12     13     32      9   180.00  15.16700   2 ;     H6-    C8-    C9-    H7
    32     13     14     33      9   180.00  15.16700   2 ;     H7-    C9-   C10-    H8
    33     14     15     34      9   180.00  15.16700   2 ;     H8-   C10-   C11-    H9
    37     19     20     38      9   180.00  15.16700   2 ;    H12-   C14-   C15-   H13
    38     20     21     39      9   180.00  15.16700   2 ;    H13-   C15-   C16-   H14
    39     21     22     40      9   180.00  15.16700   2 ;    H14-   C16-   C17-   H15

[ dihedrals ] ; impropers
; treated as propers in GROMACS to use correct AMBER analytical function
;    i      j      k      l   func   phase     kd      pn
     1      2      3      9      4   180.00   4.60240   2 ;     O1-    C1-    N1-    C5
     2      4      3     26      4   180.00   4.60240   2 ;     C1-    C2-    N1-    H1
     3      5      4      8      4   180.00   4.60240   2 ;     N1-    N2-    C2-    S1
     6     28      7      8      4   180.00   4.60240   2 ;     C3-    H3-    C4-    S1
     7     27      6      5      4   180.00   4.60240   2 ;     C4-    H2-    C3-    N2
    10     12     11     30      4   180.00   4.60240   2 ;     C6-    C8-    C7-    H5
    10     14     15     34      4   180.00   4.60240   2 ;     C6-   C10-   C11-    H9
    11     13     12     31      4   180.00   4.60240   2 ;     C7-    C9-    C8-    H6
    11     15     10      9      4   180.00   4.60240   2 ;     C7-   C11-    C6-    C5
    12     14     13     32      4   180.00   4.60240   2 ;     C8-   C10-    C9-    H7
    13     15     14     33      4   180.00   4.60240   2 ;     C9-   C11-   C10-    H8
    17     19     18     23      4   180.00   4.60240   2 ;    C12-   C14-   C13-   C18
    18     20     19     37      4   180.00   4.60240   2 ;    C13-   C15-   C14-   H12
    18     22     23     24      4   180.00   4.60240   2 ;    C13-   C17-   C18-   C19
    19     21     20     38      4   180.00   4.60240   2 ;    C14-   C16-   C15-   H13
    20     22     21     39      4   180.00   4.60240   2 ;    C15-   C17-   C16-   H14
    21     23     22     40      4   180.00   4.60240   2 ;    C16-   C18-   C17-   H15
    23     16     24     25      4   180.00   4.60240   2 ;    C18-    N3-   C19-    O2
    24      9     16     17      4   180.00   4.60240   2 ;    C19-    C5-    N3-   C12

