; EAI045_analog_2_GMX.top created by acpype (v: 2023.10.27) on Wed Sep 30 13:49:07 2026

[ defaults ]
; nbfunc        comb-rule       gen-pairs       fudgeLJ fudgeQQ
1               2               yes             0.5     0.8333333333

[ atomtypes ]
;name   bond_type     mass     charge   ptype   sigma         epsilon       Amb
 o        o           0.00000  0.00000   A     3.04812e-01   6.12119e-01 ; 1.71  0.1463
 c2       c2          0.00000  0.00000   A     3.31521e-01   4.13379e-01 ; 1.86  0.0988
 n        n           0.00000  0.00000   A     3.18086e-01   6.84502e-01 ; 1.79  0.1636
 n2       n2          0.00000  0.00000   A     3.38417e-01   3.93714e-01 ; 1.90  0.0941
 ss       ss          0.00000  0.00000   A     3.53241e-01   1.18156e+00 ; 1.98  0.2824
 c3       c3          0.00000  0.00000   A     3.39771e-01   4.51035e-01 ; 1.91  0.1078
 ca       ca          0.00000  0.00000   A     3.31521e-01   4.13379e-01 ; 1.86  0.0988
 f        f           0.00000  0.00000   A     3.03422e-01   3.48109e-01 ; 1.70  0.0832
 hn       hn          0.00000  0.00000   A     1.10650e-01   4.18400e-02 ; 0.62  0.0100
 h4       h4          0.00000  0.00000   A     2.53639e-01   6.73624e-02 ; 1.42  0.0161
 h1       h1          0.00000  0.00000   A     2.42200e-01   8.70272e-02 ; 1.36  0.0208
 ha       ha          0.00000  0.00000   A     2.62548e-01   6.73624e-02 ; 1.47  0.0161

[ moleculetype ]
;name            nrexcl
 EAI045_analog_2  3

[ atoms ]
;   nr  type  resi  res  atom  cgnr     charge      mass       ; qtot   bond_type
     1    o     1   UNL    O1    1    -0.348000     16.00000 ; qtot -0.348
     2   c2     1   UNL    C1    2     0.275000     12.01000 ; qtot -0.073
     3    n     1   UNL    N1    3    -0.286000     14.01000 ; qtot -0.359
     4   c2     1   UNL    C2    4    -0.174000     12.01000 ; qtot -0.533
     5   n2     1   UNL    N2    5    -0.154000     14.01000 ; qtot -0.687
     6   c2     1   UNL    C3    6    -0.112000     12.01000 ; qtot -0.799
     7   c2     1   UNL    C4    7    -0.518000     12.01000 ; qtot -1.317
     8   ss     1   UNL    S1    8     0.590999     32.06000 ; qtot -0.726
     9   c3     1   UNL    C5    9     0.082000     12.01000 ; qtot -0.644
    10   ca     1   UNL    C6   10    -0.066000     12.01000 ; qtot -0.710
    11   ca     1   UNL    C7   11    -0.104500     12.01000 ; qtot -0.815
    12   ca     1   UNL    C8   12    -0.087500     12.01000 ; qtot -0.902
    13   ca     1   UNL    C9   13    -0.147000     12.01000 ; qtot -1.049
    14   c3     1   UNL   C10   14     0.465000     12.01000 ; qtot -0.584
    15    f     1   UNL    F1   15    -0.164333     19.00000 ; qtot -0.748
    16    f     1   UNL    F2   16    -0.164333     19.00000 ; qtot -0.913
    17    f     1   UNL    F3   17    -0.164333     19.00000 ; qtot -1.077
    18   ca     1   UNL   C11   18    -0.087500     12.01000 ; qtot -1.165
    19   ca     1   UNL   C12   19    -0.104500     12.01000 ; qtot -1.269
    20    n     1   UNL    N3   20    -0.356000     14.01000 ; qtot -1.625
    21   c3     1   UNL   C13   21     0.014000     12.01000 ; qtot -1.611
    22   ca     1   UNL   C14   22    -0.072000     12.01000 ; qtot -1.683
    23   ca     1   UNL   C15   23    -0.117000     12.01000 ; qtot -1.800
    24   ca     1   UNL   C16   24    -0.098000     12.01000 ; qtot -1.898
    25   ca     1   UNL   C17   25    -0.141000     12.01000 ; qtot -2.039
    26   ca     1   UNL   C18   26    -0.048000     12.01000 ; qtot -2.087
    27   ca     1   UNL   C19   27    -0.135000     12.01000 ; qtot -2.222
    28   c2     1   UNL   C20   28     0.360000     12.01000 ; qtot -1.862
    29    o     1   UNL    O2   29    -0.346000     16.00000 ; qtot -2.208
    30   hn     1   UNL    H1   30     0.278000      1.00800 ; qtot -1.930
    31   h4     1   UNL    H2   31     0.180000      1.00800 ; qtot -1.750
    32   h4     1   UNL    H3   32     0.181000      1.00800 ; qtot -1.569
    33   h1     1   UNL    H4   33     0.139000      1.00800 ; qtot -1.430
    34   ha     1   UNL    H5   34     0.154500      1.00800 ; qtot -1.276
    35   ha     1   UNL    H6   35     0.156000      1.00800 ; qtot -1.120
    36   ha     1   UNL    H7   36     0.156000      1.00800 ; qtot -0.964
    37   ha     1   UNL    H8   37     0.154500      1.00800 ; qtot -0.809
    38   h1     1   UNL    H9   38     0.112000      1.00800 ; qtot -0.697
    39   h1     1   UNL   H10   39     0.112000      1.00800 ; qtot -0.585
    40   ha     1   UNL   H11   40     0.144000      1.00800 ; qtot -0.441
    41   ha     1   UNL   H12   41     0.140000      1.00800 ; qtot -0.301
    42   ha     1   UNL   H13   42     0.143000      1.00800 ; qtot -0.158
    43   ha     1   UNL   H14   43     0.158000      1.00800 ; qtot -0.000

[ bonds ]
;   ai     aj funct   r             k
     1      2   1    1.2249e-01    4.8317e+05 ;     O1 - C1    
     2      3   1    1.4001e-01    2.6265e+05 ;     C1 - N1    
     2      9   1    1.5088e-01    2.0786e+05 ;     C1 - C5    
     3      4   1    1.4001e-01    2.6265e+05 ;     N1 - C2    
     3     30   1    1.0130e-01    4.4124e+05 ;     N1 - H1    
     4      5   1    1.2809e-01    3.9831e+05 ;     C2 - N2    
     4      8   1    1.7842e-01    1.7887e+05 ;     C2 - S1    
     5      6   1    1.2809e-01    3.9831e+05 ;     N2 - C3    
     6      7   1    1.3379e-01    3.6484e+05 ;     C3 - C4    
     6     31   1    1.0865e-01    3.0117e+05 ;     C3 - H2    
     7      8   1    1.7842e-01    1.7887e+05 ;     C4 - S1    
     7     32   1    1.0865e-01    3.0117e+05 ;     C4 - H3    
     9     10   1    1.5147e-01    2.0410e+05 ;     C5 - C6    
     9     20   1    1.4643e-01    2.1293e+05 ;     C5 - N3    
     9     33   1    1.0969e-01    2.8804e+05 ;     C5 - H4    
    10     11   1    1.3986e-01    2.9644e+05 ;     C6 - C7    
    10     19   1    1.3986e-01    2.9644e+05 ;     C6 - C12   
    11     12   1    1.3986e-01    2.9644e+05 ;     C7 - C8    
    11     34   1    1.0860e-01    3.0183e+05 ;     C7 - H5    
    12     13   1    1.3986e-01    2.9644e+05 ;     C8 - C9    
    12     35   1    1.0860e-01    3.0183e+05 ;     C8 - H6    
    13     14   1    1.5147e-01    2.0410e+05 ;     C9 - C10   
    13     18   1    1.3986e-01    2.9644e+05 ;     C9 - C11   
    14     15   1    1.3512e-01    2.7973e+05 ;    C10 - F1    
    14     16   1    1.3512e-01    2.7973e+05 ;    C10 - F2    
    14     17   1    1.3512e-01    2.7973e+05 ;    C10 - F3    
    18     19   1    1.3986e-01    2.9644e+05 ;    C11 - C12   
    18     36   1    1.0860e-01    3.0183e+05 ;    C11 - H7    
    19     37   1    1.0860e-01    3.0183e+05 ;    C12 - H8    
    20     21   1    1.4643e-01    2.1293e+05 ;     N3 - C13   
    20     28   1    1.4001e-01    2.6265e+05 ;     N3 - C20   
    21     22   1    1.5147e-01    2.0410e+05 ;    C13 - C14   
    21     38   1    1.0969e-01    2.8804e+05 ;    C13 - H9    
    21     39   1    1.0969e-01    2.8804e+05 ;    C13 - H10   
    22     23   1    1.3986e-01    2.9644e+05 ;    C14 - C15   
    22     27   1    1.3986e-01    2.9644e+05 ;    C14 - C19   
    23     24   1    1.3986e-01    2.9644e+05 ;    C15 - C16   
    23     40   1    1.0860e-01    3.0183e+05 ;    C15 - H11   
    24     25   1    1.3986e-01    2.9644e+05 ;    C16 - C17   
    24     41   1    1.0860e-01    3.0183e+05 ;    C16 - H12   
    25     26   1    1.3986e-01    2.9644e+05 ;    C17 - C18   
    25     42   1    1.0860e-01    3.0183e+05 ;    C17 - H13   
    26     27   1    1.3986e-01    2.9644e+05 ;    C18 - C19   
    26     43   1    1.0860e-01    3.0183e+05 ;    C18 - H14   
    27     28   1    1.3739e-01    3.2221e+05 ;    C19 - C20   
    28     29   1    1.2249e-01    4.8317e+05 ;    C20 - O2    

[ pairs ]
;   ai     aj    funct
     1      4      1 ;     O1 - C2    
     1     10      1 ;     O1 - C6    
     1     20      1 ;     O1 - N3    
     1     30      1 ;     O1 - H1    
     1     33      1 ;     O1 - H4    
     2      5      1 ;     C1 - N2    
     2      8      1 ;     C1 - S1    
     2     11      1 ;     C1 - C7    
     2     19      1 ;     C1 - C12   
     2     21      1 ;     C1 - C13   
     2     28      1 ;     C1 - C20   
     3      6      1 ;     N1 - C3    
     3      7      1 ;     N1 - C4    
     3     10      1 ;     N1 - C6    
     3     20      1 ;     N1 - N3    
     3     33      1 ;     N1 - H4    
     4      9      1 ;     C2 - C5    
     4     31      1 ;     C2 - H2    
     4     32      1 ;     C2 - H3    
     5     30      1 ;     N2 - H1    
     5     32      1 ;     N2 - H3    
     8     30      1 ;     S1 - H1    
     8     31      1 ;     S1 - H2    
     9     12      1 ;     C5 - C8    
     9     18      1 ;     C5 - C11   
     9     22      1 ;     C5 - C14   
     9     27      1 ;     C5 - C19   
     9     29      1 ;     C5 - O2    
     9     30      1 ;     C5 - H1    
     9     34      1 ;     C5 - H5    
     9     37      1 ;     C5 - H8    
     9     38      1 ;     C5 - H9    
     9     39      1 ;     C5 - H10   
    10     13      1 ;     C6 - C9    
    10     21      1 ;     C6 - C13   
    10     28      1 ;     C6 - C20   
    10     35      1 ;     C6 - H6    
    10     36      1 ;     C6 - H7    
    11     14      1 ;     C7 - C10   
    11     18      1 ;     C7 - C11   
    11     20      1 ;     C7 - N3    
    11     33      1 ;     C7 - H4    
    11     37      1 ;     C7 - H8    
    12     15      1 ;     C8 - F1    
    12     16      1 ;     C8 - F2    
    12     17      1 ;     C8 - F3    
    12     19      1 ;     C8 - C12   
    12     36      1 ;     C8 - H7    
    13     34      1 ;     C9 - H5    
    13     37      1 ;     C9 - H8    
    14     19      1 ;    C10 - C12   
    14     35      1 ;    C10 - H6    
    14     36      1 ;    C10 - H7    
    15     18      1 ;     F1 - C11   
    16     18      1 ;     F2 - C11   
    17     18      1 ;     F3 - C11   
    18     35      1 ;    C11 - H6    
    19     20      1 ;    C12 - N3    
    19     33      1 ;    C12 - H4    
    19     34      1 ;    C12 - H5    
    20     23      1 ;     N3 - C15   
    20     26      1 ;     N3 - C18   
    21     24      1 ;    C13 - C16   
    21     26      1 ;    C13 - C18   
    21     29      1 ;    C13 - O2    
    21     33      1 ;    C13 - H4    
    21     40      1 ;    C13 - H11   
    22     25      1 ;    C14 - C17   
    22     29      1 ;    C14 - O2    
    22     41      1 ;    C14 - H12   
    22     43      1 ;    C14 - H14   
    23     26      1 ;    C15 - C18   
    23     28      1 ;    C15 - C20   
    23     38      1 ;    C15 - H9    
    23     39      1 ;    C15 - H10   
    23     42      1 ;    C15 - H13   
    24     27      1 ;    C16 - C19   
    24     43      1 ;    C16 - H14   
    25     28      1 ;    C17 - C20   
    25     40      1 ;    C17 - H11   
    26     29      1 ;    C18 - O2    
    26     41      1 ;    C18 - H12   
    27     38      1 ;    C19 - H9    
    27     39      1 ;    C19 - H10   
    27     40      1 ;    C19 - H11   
    27     42      1 ;    C19 - H13   
    28     33      1 ;    C20 - H4    
    28     38      1 ;    C20 - H9    
    28     39      1 ;    C20 - H10   
    28     43      1 ;    C20 - H14   
    31     32      1 ;     H2 - H3    
    34     35      1 ;     H5 - H6    
    36     37      1 ;     H7 - H8    
    40     41      1 ;    H11 - H12   
    41     42      1 ;    H12 - H13   
    42     43      1 ;    H13 - H14   

[ angles ]
;   ai     aj     ak    funct   theta         cth
     1      2      3      1    1.1746e+02    6.2843e+02 ;     O1 - C1     - N1    
     1      2      9      1    1.2286e+02    6.4501e+02 ;     O1 - C1     - C5    
     2      3      4      1    1.2332e+02    6.4894e+02 ;     C1 - N1     - C2    
     2      3     30      1    1.1790e+02    4.0166e+02 ;     C1 - N1     - H1    
     2      9     10      1    1.1305e+02    5.0794e+02 ;     C1 - C5     - C6    
     2      9     20      1    1.1255e+02    5.4928e+02 ;     C1 - C5     - N3    
     2      9     33      1    1.0996e+02    3.6727e+02 ;     C1 - C5     - H4    
     3      2      9      1    1.2152e+02    5.3898e+02 ;     N1 - C1     - C5    
     3      4      5      1    1.2172e+02    6.1957e+02 ;     N1 - C2     - N2    
     3      4      8      1    1.1128e+02    5.8216e+02 ;     N1 - C2     - S1    
     4      3     30      1    1.1790e+02    4.0166e+02 ;     C2 - N1     - H1    
     4      5      6      1    1.1818e+02    6.1254e+02 ;     C2 - N2     - C3    
     4      8      7      1    9.9700e+01    7.9981e+02 ;     C2 - S1     - C4    
     5      4      8      1    1.2265e+02    5.6199e+02 ;     N2 - C2     - S1    
     5      6      7      1    1.2601e+02    7.5145e+02 ;     N2 - C3     - C4    
     5      6     31      1    1.2105e+02    4.2426e+02 ;     N2 - C3     - H2    
     6      7      8      1    1.2219e+02    5.2752e+02 ;     C3 - C4     - S1    
     6      7     32      1    1.2272e+02    3.8451e+02 ;     C3 - C4     - H3    
     7      6     31      1    1.2272e+02    3.8451e+02 ;     C4 - C3     - H2    
     8      7     32      1    1.1627e+02    3.5179e+02 ;     S1 - C4     - H3    
     9     10     11      1    1.2083e+02    5.0827e+02 ;     C5 - C6     - C7    
     9     10     19      1    1.2083e+02    5.0827e+02 ;     C5 - C6     - C12   
     9     20     21      1    1.1675e+02    6.3773e+02 ;     C5 - N3     - C13   
     9     20     28      1    1.2234e+02    6.3630e+02 ;     C5 - N3     - C20   
    10      9     20      1    1.1351e+02    5.4584e+02 ;     C6 - C5     - N3    
    10      9     33      1    1.0960e+02    3.6660e+02 ;     C6 - C5     - H4    
    10     11     12      1    1.2002e+02    5.3279e+02 ;     C6 - C7     - C8    
    10     11     34      1    1.1988e+02    3.7572e+02 ;     C6 - C7     - H5    
    10     19     18      1    1.2002e+02    5.3279e+02 ;     C6 - C12    - C11   
    10     19     37      1    1.1988e+02    3.7572e+02 ;     C6 - C12    - H8    
    11     10     19      1    1.2002e+02    5.3279e+02 ;     C7 - C6     - C12   
    11     12     13      1    1.2002e+02    5.3279e+02 ;     C7 - C8     - C9    
    11     12     35      1    1.1988e+02    3.7572e+02 ;     C7 - C8     - H6    
    12     11     34      1    1.1988e+02    3.7572e+02 ;     C8 - C7     - H5    
    12     13     14      1    1.2083e+02    5.0827e+02 ;     C8 - C9     - C10   
    12     13     18      1    1.2002e+02    5.3279e+02 ;     C8 - C9     - C11   
    13     12     35      1    1.1988e+02    3.7572e+02 ;     C9 - C8     - H6    
    13     14     15      1    1.1178e+02    6.6308e+02 ;     C9 - C10    - F1    
    13     14     16      1    1.1178e+02    6.6308e+02 ;     C9 - C10    - F2    
    13     14     17      1    1.1178e+02    6.6308e+02 ;     C9 - C10    - F3    
    13     18     19      1    1.2002e+02    5.3279e+02 ;     C9 - C11    - C12   
    13     18     36      1    1.1988e+02    3.7572e+02 ;     C9 - C11    - H7    
    14     13     18      1    1.2083e+02    5.0827e+02 ;    C10 - C9     - C11   
    15     14     16      1    1.0737e+02    8.9437e+02 ;     F1 - C10    - F2    
    15     14     17      1    1.0737e+02    8.9437e+02 ;     F1 - C10    - F3    
    16     14     17      1    1.0737e+02    8.9437e+02 ;     F2 - C10    - F3    
    18     19     37      1    1.1988e+02    3.7572e+02 ;    C11 - C12    - H8    
    19     18     36      1    1.1988e+02    3.7572e+02 ;    C12 - C11    - H7    
    20      9     33      1    1.0876e+02    4.0242e+02 ;     N3 - C5     - H4    
    20     21     22      1    1.1351e+02    5.4584e+02 ;     N3 - C13    - C14   
    20     21     38      1    1.0876e+02    4.0242e+02 ;     N3 - C13    - H9    
    20     21     39      1    1.0876e+02    4.0242e+02 ;     N3 - C13    - H10   
    20     28     27      1    1.2367e+02    5.7488e+02 ;     N3 - C20    - C19   
    20     28     29      1    1.1746e+02    6.2843e+02 ;     N3 - C20    - O2    
    21     20     28      1    1.2234e+02    6.3630e+02 ;    C13 - N3     - C20   
    21     22     23      1    1.2083e+02    5.0827e+02 ;    C13 - C14    - C15   
    21     22     27      1    1.2083e+02    5.0827e+02 ;    C13 - C14    - C19   
    22     21     38      1    1.0960e+02    3.6660e+02 ;    C14 - C13    - H9    
    22     21     39      1    1.0960e+02    3.6660e+02 ;    C14 - C13    - H10   
    22     23     24      1    1.2002e+02    5.3279e+02 ;    C14 - C15    - C16   
    22     23     40      1    1.1988e+02    3.7572e+02 ;    C14 - C15    - H11   
    22     27     26      1    1.2002e+02    5.3279e+02 ;    C14 - C19    - C18   
    22     27     28      1    1.2084e+02    5.3564e+02 ;    C14 - C19    - C20   
    23     22     27      1    1.2002e+02    5.3279e+02 ;    C15 - C14    - C19   
    23     24     25      1    1.2002e+02    5.3279e+02 ;    C15 - C16    - C17   
    23     24     41      1    1.1988e+02    3.7572e+02 ;    C15 - C16    - H12   
    24     23     40      1    1.1988e+02    3.7572e+02 ;    C16 - C15    - H11   
    24     25     26      1    1.2002e+02    5.3279e+02 ;    C16 - C17    - C18   
    24     25     42      1    1.1988e+02    3.7572e+02 ;    C16 - C17    - H13   
    25     24     41      1    1.1988e+02    3.7572e+02 ;    C17 - C16    - H12   
    25     26     27      1    1.2002e+02    5.3279e+02 ;    C17 - C18    - C19   
    25     26     43      1    1.1988e+02    3.7572e+02 ;    C17 - C18    - H14   
    26     25     42      1    1.1988e+02    3.7572e+02 ;    C18 - C17    - H13   
    26     27     28      1    1.2084e+02    5.3564e+02 ;    C18 - C19    - C20   
    27     26     43      1    1.1988e+02    3.7572e+02 ;    C19 - C18    - H14   
    27     28     29      1    1.2359e+02    6.0919e+02 ;    C19 - C20    - O2    
    38     21     39      1    1.0855e+02    2.9824e+02 ;     H9 - C13    - H10   

[ dihedrals ] ; propers
; for gromacs 4.5 or higher, using funct 9
;    i      j      k      l   func   phase     kd      pn
     1      2      3      4      9   180.00   2.71960   2 ;     O1-    C1-    N1-    C2
     1      2      3     30      9   180.00   2.71960   2 ;     O1-    C1-    N1-    H1
     1      2      9     10      9     0.00   0.00000   0 ;     O1-    C1-    C5-    C6
     1      2      9     20      9     0.00   0.00000   0 ;     O1-    C1-    C5-    N3
     1      2      9     33      9     0.00   0.00000   0 ;     O1-    C1-    C5-    H4
     2      3      4      5      9   180.00   2.71960   2 ;     C1-    N1-    C2-    N2
     2      3      4      8      9   180.00   2.71960   2 ;     C1-    N1-    C2-    S1
     2      9     10     11      9   180.00   0.00000   2 ;     C1-    C5-    C6-    C7
     2      9     10     19      9   180.00   0.00000   2 ;     C1-    C5-    C6-   C12
     2      9     20     21      9     0.00   0.00000   0 ;     C1-    C5-    N3-   C13
     2      9     20     28      9     0.00   0.00000   0 ;     C1-    C5-    N3-   C20
     3      2      9     10      9     0.00   0.00000   0 ;     N1-    C1-    C5-    C6
     3      2      9     20      9     0.00   0.00000   0 ;     N1-    C1-    C5-    N3
     3      2      9     33      9     0.00   0.00000   0 ;     N1-    C1-    C5-    H4
     3      4      5      6      9   180.00  17.36360   2 ;     N1-    C2-    N2-    C3
     3      4      8      7      9   180.00   4.60240   2 ;     N1-    C2-    S1-    C4
     4      3      2      9      9   180.00   2.71960   2 ;     C2-    N1-    C1-    C5
     4      5      6      7      9   180.00  17.36360   2 ;     C2-    N2-    C3-    C4
     4      5      6     31      9   180.00  17.36360   2 ;     C2-    N2-    C3-    H2
     4      8      7      6      9   180.00   4.60240   2 ;     C2-    S1-    C4-    C3
     4      8      7     32      9   180.00   4.60240   2 ;     C2-    S1-    C4-    H3
     5      4      3     30      9   180.00   2.71960   2 ;     N2-    C2-    N1-    H1
     5      4      8      7      9   180.00   4.60240   2 ;     N2-    C2-    S1-    C4
     5      6      7      8      9   180.00  27.82360   2 ;     N2-    C3-    C4-    S1
     5      6      7     32      9   180.00  27.82360   2 ;     N2-    C3-    C4-    H3
     6      5      4      8      9   180.00  17.36360   2 ;     C3-    N2-    C2-    S1
     8      4      3     30      9   180.00   2.71960   2 ;     S1-    C2-    N1-    H1
     8      7      6     31      9   180.00  27.82360   2 ;     S1-    C4-    C3-    H2
     9      2      3     30      9   180.00   2.71960   2 ;     C5-    C1-    N1-    H1
     9     10     11     12      9   180.00  15.16700   2 ;     C5-    C6-    C7-    C8
     9     10     11     34      9   180.00  15.16700   2 ;     C5-    C6-    C7-    H5
     9     10     19     18      9   180.00  15.16700   2 ;     C5-    C6-   C12-   C11
     9     10     19     37      9   180.00  15.16700   2 ;     C5-    C6-   C12-    H8
     9     20     21     22      9     0.00   0.00000   0 ;     C5-    N3-   C13-   C14
     9     20     21     38      9     0.00   0.00000   0 ;     C5-    N3-   C13-    H9
     9     20     21     39      9     0.00   0.00000   0 ;     C5-    N3-   C13-   H10
     9     20     28     27      9   180.00   2.71960   2 ;     C5-    N3-   C20-   C19
     9     20     28     29      9   180.00   2.71960   2 ;     C5-    N3-   C20-    O2
    10      9     20     21      9     0.00   0.00000   0 ;     C6-    C5-    N3-   C13
    10      9     20     28      9     0.00   0.00000   0 ;     C6-    C5-    N3-   C20
    10     11     12     13      9   180.00  15.16700   2 ;     C6-    C7-    C8-    C9
    10     11     12     35      9   180.00  15.16700   2 ;     C6-    C7-    C8-    H6
    10     19     18     13      9   180.00  15.16700   2 ;     C6-   C12-   C11-    C9
    10     19     18     36      9   180.00  15.16700   2 ;     C6-   C12-   C11-    H7
    11     10      9     20      9     0.00   0.00000   0 ;     C7-    C6-    C5-    N3
    11     10      9     33      9     0.00   0.00000   0 ;     C7-    C6-    C5-    H4
    11     10     19     18      9   180.00  15.16700   2 ;     C7-    C6-   C12-   C11
    11     10     19     37      9   180.00  15.16700   2 ;     C7-    C6-   C12-    H8
    11     12     13     14      9   180.00  15.16700   2 ;     C7-    C8-    C9-   C10
    11     12     13     18      9   180.00  15.16700   2 ;     C7-    C8-    C9-   C11
    12     11     10     19      9   180.00  15.16700   2 ;     C8-    C7-    C6-   C12
    12     13     14     15      9     0.00   0.00000   0 ;     C8-    C9-   C10-    F1
    12     13     14     16      9     0.00   0.00000   0 ;     C8-    C9-   C10-    F2
    12     13     14     17      9     0.00   0.00000   0 ;     C8-    C9-   C10-    F3
    12     13     18     19      9   180.00  15.16700   2 ;     C8-    C9-   C11-   C12
    12     13     18     36      9   180.00  15.16700   2 ;     C8-    C9-   C11-    H7
    13     12     11     34      9   180.00  15.16700   2 ;     C9-    C8-    C7-    H5
    13     18     19     37      9   180.00  15.16700   2 ;     C9-   C11-   C12-    H8
    14     13     12     35      9   180.00  15.16700   2 ;    C10-    C9-    C8-    H6
    14     13     18     19      9   180.00  15.16700   2 ;    C10-    C9-   C11-   C12
    14     13     18     36      9   180.00  15.16700   2 ;    C10-    C9-   C11-    H7
    15     14     13     18      9     0.00   0.00000   0 ;     F1-   C10-    C9-   C11
    16     14     13     18      9     0.00   0.00000   0 ;     F2-   C10-    C9-   C11
    17     14     13     18      9     0.00   0.00000   0 ;     F3-   C10-    C9-   C11
    18     13     12     35      9   180.00  15.16700   2 ;    C11-    C9-    C8-    H6
    19     10      9     20      9     0.00   0.00000   0 ;    C12-    C6-    C5-    N3
    19     10      9     33      9     0.00   0.00000   0 ;    C12-    C6-    C5-    H4
    19     10     11     34      9   180.00  15.16700   2 ;    C12-    C6-    C7-    H5
    20     21     22     23      9     0.00   0.00000   0 ;     N3-   C13-   C14-   C15
    20     21     22     27      9     0.00   0.00000   0 ;     N3-   C13-   C14-   C19
    20     28     27     22      9   180.00   2.92880   2 ;     N3-   C20-   C19-   C14
    20     28     27     26      9   180.00   2.92880   2 ;     N3-   C20-   C19-   C18
    21     20      9     33      9     0.00   0.00000   0 ;    C13-    N3-    C5-    H4
    21     20     28     27      9   180.00   2.71960   2 ;    C13-    N3-   C20-   C19
    21     20     28     29      9   180.00   2.71960   2 ;    C13-    N3-   C20-    O2
    21     22     23     24      9   180.00  15.16700   2 ;    C13-   C14-   C15-   C16
    21     22     23     40      9   180.00  15.16700   2 ;    C13-   C14-   C15-   H11
    21     22     27     26      9   180.00  15.16700   2 ;    C13-   C14-   C19-   C18
    21     22     27     28      9   180.00  15.16700   2 ;    C13-   C14-   C19-   C20
    22     21     20     28      9     0.00   0.00000   0 ;    C14-   C13-    N3-   C20
    22     23     24     25      9   180.00  15.16700   2 ;    C14-   C15-   C16-   C17
    22     23     24     41      9   180.00  15.16700   2 ;    C14-   C15-   C16-   H12
    22     27     26     25      9   180.00  15.16700   2 ;    C14-   C19-   C18-   C17
    22     27     26     43      9   180.00  15.16700   2 ;    C14-   C19-   C18-   H14
    22     27     28     29      9   180.00   2.92880   2 ;    C14-   C19-   C20-    O2
    23     22     21     38      9     0.00   0.00000   0 ;    C15-   C14-   C13-    H9
    23     22     21     39      9     0.00   0.00000   0 ;    C15-   C14-   C13-   H10
    23     22     27     26      9   180.00  15.16700   2 ;    C15-   C14-   C19-   C18
    23     22     27     28      9   180.00  15.16700   2 ;    C15-   C14-   C19-   C20
    23     24     25     26      9   180.00  15.16700   2 ;    C15-   C16-   C17-   C18
    23     24     25     42      9   180.00  15.16700   2 ;    C15-   C16-   C17-   H13
    24     23     22     27      9   180.00  15.16700   2 ;    C16-   C15-   C14-   C19
    24     25     26     27      9   180.00  15.16700   2 ;    C16-   C17-   C18-   C19
    24     25     26     43      9   180.00  15.16700   2 ;    C16-   C17-   C18-   H14
    25     24     23     40      9   180.00  15.16700   2 ;    C17-   C16-   C15-   H11
    25     26     27     28      9   180.00  15.16700   2 ;    C17-   C18-   C19-   C20
    26     25     24     41      9   180.00  15.16700   2 ;    C18-   C17-   C16-   H12
    26     27     28     29      9   180.00   2.92880   2 ;    C18-   C19-   C20-    O2
    27     22     21     38      9     0.00   0.00000   0 ;    C19-   C14-   C13-    H9
    27     22     21     39      9     0.00   0.00000   0 ;    C19-   C14-   C13-   H10
    27     22     23     40      9   180.00  15.16700   2 ;    C19-   C14-   C15-   H11
    27     26     25     42      9   180.00  15.16700   2 ;    C19-   C18-   C17-   H13
    28     20      9     33      9     0.00   0.00000   0 ;    C20-    N3-    C5-    H4
    28     20     21     38      9     0.00   0.00000   0 ;    C20-    N3-   C13-    H9
    28     20     21     39      9     0.00   0.00000   0 ;    C20-    N3-   C13-   H10
    28     27     26     43      9   180.00  15.16700   2 ;    C20-   C19-   C18-   H14
    31      6      7     32      9   180.00  27.82360   2 ;     H2-    C3-    C4-    H3
    34     11     12     35      9   180.00  15.16700   2 ;     H5-    C7-    C8-    H6
    36     18     19     37      9   180.00  15.16700   2 ;     H7-   C11-   C12-    H8
    40     23     24     41      9   180.00  15.16700   2 ;    H11-   C15-   C16-   H12
    41     24     25     42      9   180.00  15.16700   2 ;    H12-   C16-   C17-   H13
    42     25     26     43      9   180.00  15.16700   2 ;    H13-   C17-   C18-   H14

[ dihedrals ] ; impropers
; treated as propers in GROMACS to use correct AMBER analytical function
;    i      j      k      l   func   phase     kd      pn
     1      2      3      9      4   180.00   4.60240   2 ;     O1-    C1-    N1-    C5
     2      4      3     30      4   180.00   4.60240   2 ;     C1-    C2-    N1-    H1
     3      5      4      8      4   180.00   4.60240   2 ;     N1-    N2-    C2-    S1
     6     32      7      8      4   180.00   4.60240   2 ;     C3-    H3-    C4-    S1
     7     31      6      5      4   180.00   4.60240   2 ;     C4-    H2-    C3-    N2
    10     12     11     34      4   180.00   4.60240   2 ;     C6-    C8-    C7-    H5
    10     18     19     37      4   180.00   4.60240   2 ;     C6-   C11-   C12-    H8
    11     13     12     35      4   180.00   4.60240   2 ;     C7-    C9-    C8-    H6
    11     19     10      9      4   180.00   4.60240   2 ;     C7-   C12-    C6-    C5
    13     19     18     36      4   180.00   4.60240   2 ;     C9-   C12-   C11-    H7
    14     12     13     18      4   180.00   4.60240   2 ;    C10-    C8-    C9-   C11
    21     23     22     27      4   180.00   4.60240   2 ;    C13-   C15-   C14-   C19
    22     24     23     40      4   180.00   4.60240   2 ;    C14-   C16-   C15-   H11
    22     26     27     28      4   180.00   4.60240   2 ;    C14-   C18-   C19-   C20
    23     25     24     41      4   180.00   4.60240   2 ;    C15-   C17-   C16-   H12
    24     26     25     42      4   180.00   4.60240   2 ;    C16-   C18-   C17-   H13
    25     27     26     43      4   180.00   4.60240   2 ;    C17-   C19-   C18-   H14
    27     20     28     29      4   180.00   4.60240   2 ;    C19-    N3-   C20-    O2
    28      9     20     21      4   180.00   4.60240   2 ;    C20-    C5-    N3-   C13

[ system ]
 EAI045_analog_2

[ molecules ]
; Compound        nmols
 EAI045_analog_2  1     
