[ moleculetype ]
;name            nrexcl
 decoy_0086       3

[ atoms ]
;   nr  type  resi  res  atom  cgnr     charge      mass       ; qtot   bond_type
     1   c2     1   UNL    C6    1    -0.315000     12.01000 ; qtot -0.315
     2   n3     1   UNL    N3    2    -0.160000     14.01000 ; qtot -0.475
     3   c1     1   UNL    C7    3    -0.031000     12.01000 ; qtot -0.506
     4   c1     1   UNL    C8    4    -0.085000     12.01000 ; qtot -0.591
     5   c2     1   UNL    C9    5     0.003000     12.01000 ; qtot -0.588
     6   hn     1   UNL    H6    6     0.227000      1.00800 ; qtot -0.361
     7   c2     1   UNL   C10    7     0.008000     12.01000 ; qtot -0.353
     8   n3     1   UNL    N4    8    -0.182000     14.01000 ; qtot -0.535
     9   c1     1   UNL   C11    9    -0.109000     12.01000 ; qtot -0.644
    10   c1     1   UNL   C12   10     0.082000     12.01000 ; qtot -0.562
    11   c2     1   UNL   C13   11    -0.234000     12.01000 ; qtot -0.796
    12   hn     1   UNL    H9   12     0.278000      1.00800 ; qtot -0.518
    13   c2     1   UNL   C14   13     0.141000     12.01000 ; qtot -0.377
    14   c1     1   UNL   C15   14    -0.014000     12.01000 ; qtot -0.391
    15   c1     1   UNL   C16   15    -0.041000     12.01000 ; qtot -0.432
    16   c1     1   UNL   C17   16    -0.027000     12.01000 ; qtot -0.459
    17   c1     1   UNL   C18   17    -0.041000     12.01000 ; qtot -0.500
    18   c1     1   UNL   C19   18    -0.014000     12.01000 ; qtot -0.514
    19    o     1   UNL    O1   19    -0.405000     16.00000 ; qtot -0.919
    20   c2     1   UNL    C1   20     0.343000     12.01000 ; qtot -0.576
    21    n     1   UNL    N1   21    -0.146000     14.01000 ; qtot -0.722
    22   hn     1   UNL    H1   22     0.256000      1.00800 ; qtot -0.466
    23   c2     1   UNL    C2   23     0.181000     12.01000 ; qtot -0.285
    24   c1     1   UNL    C3   24    -0.329000     12.01000 ; qtot -0.614
    25   c1     1   UNL    C4   25     0.096000     12.01000 ; qtot -0.518
    26   n3     1   UNL    N2   26    -0.268000     14.01000 ; qtot -0.786
    27   c1     1   UNL    C5   27     0.457000     12.01000 ; qtot -0.329
    28   hn     1   UNL    H4   28     0.329000      1.00800 ; qtot -0.000

[ bonds ]
;   ai     aj funct   r             k
     1      2   1    1.4206e-01    2.4537e+05 ;     C6 - N3    
     1      5   1    1.3379e-01    3.6484e+05 ;     C6 - C9    
     1     20   1    1.3379e-01    3.6484e+05 ;     C6 - C1    
     2      3   1    1.3310e-01    3.3285e+05 ;     N3 - C7    
     2      6   1    1.0190e-01    4.2786e+05 ;     N3 - H6    
     3      4   1    1.2095e-01    5.8503e+05 ;     C7 - C8    
     4      5   1    1.3185e-01    3.9066e+05 ;     C8 - C9    
     5      7   1    1.3379e-01    3.6484e+05 ;     C9 - C10   
     7      8   1    1.4206e-01    2.4537e+05 ;    C10 - N4    
     7     11   1    1.3379e-01    3.6484e+05 ;    C10 - C13   
     8      9   1    1.3310e-01    3.3285e+05 ;     N4 - C11   
     8     12   1    1.0190e-01    4.2786e+05 ;     N4 - H9    
     9     10   1    1.2095e-01    5.8503e+05 ;    C11 - C12   
    10     11   1    1.3185e-01    3.9066e+05 ;    C12 - C13   
    11     13   1    1.3379e-01    3.6484e+05 ;    C13 - C14   
    13     14   1    1.3185e-01    3.9066e+05 ;    C14 - C15   
    13     18   1    1.3185e-01    3.9066e+05 ;    C14 - C19   
    14     15   1    1.2095e-01    5.8503e+05 ;    C15 - C16   
    15     16   1    1.2095e-01    5.8503e+05 ;    C16 - C17   
    16     17   1    1.2095e-01    5.8503e+05 ;    C17 - C18   
    17     18   1    1.2095e-01    5.8503e+05 ;    C18 - C19   
    19     20   1    1.2249e-01    4.8317e+05 ;     O1 - C1    
    20     21   1    1.4001e-01    2.6265e+05 ;     C1 - N1    
    21     22   1    1.0130e-01    4.4124e+05 ;     N1 - H1    
    21     23   1    1.4001e-01    2.6265e+05 ;     N1 - C2    
    23     24   1    1.3185e-01    3.9066e+05 ;     C2 - C3    
    23     27   1    1.3185e-01    3.9066e+05 ;     C2 - C5    
    24     25   1    1.2095e-01    5.8503e+05 ;     C3 - C4    
    25     26   1    1.3310e-01    3.3285e+05 ;     C4 - N2    
    26     27   1    1.3310e-01    3.3285e+05 ;     N2 - C5    
    26     28   1    1.0190e-01    4.2786e+05 ;     N2 - H4    

[ pairs ]
;   ai     aj    funct
     1      8      1 ;     C6 - N4    
     1     11      1 ;     C6 - C13   
     1     22      1 ;     C6 - H1    
     1     23      1 ;     C6 - C2    
     2      7      1 ;     N3 - C10   
     2     19      1 ;     N3 - O1    
     2     21      1 ;     N3 - N1    
     3      7      1 ;     C7 - C10   
     4      6      1 ;     C8 - H6    
     4      8      1 ;     C8 - N4    
     4     11      1 ;     C8 - C13   
     5      6      1 ;     C9 - H6    
     5      9      1 ;     C9 - C11   
     5     10      1 ;     C9 - C12   
     5     12      1 ;     C9 - H9    
     5     13      1 ;     C9 - C14   
     5     19      1 ;     C9 - O1    
     5     21      1 ;     C9 - N1    
     7     14      1 ;    C10 - C15   
     7     18      1 ;    C10 - C19   
     8     13      1 ;     N4 - C14   
     9     13      1 ;    C11 - C14   
    10     12      1 ;    C12 - H9    
    10     14      1 ;    C12 - C15   
    10     18      1 ;    C12 - C19   
    11     12      1 ;    C13 - H9    
    11     15      1 ;    C13 - C16   
    11     17      1 ;    C13 - C18   
    13     16      1 ;    C14 - C17   
    14     17      1 ;    C15 - C18   
    15     18      1 ;    C16 - C19   
    19     22      1 ;     O1 - H1    
    19     23      1 ;     O1 - C2    
    20      3      1 ;     C1 - C7    
    20      4      1 ;     C1 - C8    
    20      6      1 ;     C1 - H6    
    20      7      1 ;     C1 - C10   
    20     24      1 ;     C1 - C3    
    20     27      1 ;     C1 - C5    
    21     25      1 ;     N1 - C4    
    21     26      1 ;     N1 - N2    
    22     24      1 ;     H1 - C3    
    22     27      1 ;     H1 - C5    
    23     28      1 ;     C2 - H4    
    24     28      1 ;     C3 - H4    

[ angles ]
;   ai     aj     ak    funct   theta         cth
     1      2      3      1    1.2401e+02    5.5408e+02 ;     C6 - N3     - C7    
     1      2      6      1    1.1938e+02    4.1422e+02 ;     C6 - N3     - H6    
     1      5      4      1    1.1381e+02    5.7614e+02 ;     C6 - C9     - C8    
     1      5      7      1    1.2408e+02    5.4785e+02 ;     C6 - C9     - C10   
     1     20     19      1    1.3089e+02    7.5145e+02 ;     C6 - C1     - O1    
     1     20     21      1    1.2429e+02    5.6727e+02 ;     C6 - C1     - N1    
     2      1      5      1    1.2455e+02    7.3973e+02 ;     N3 - C6     - C9    
     2      1     20      1    1.2455e+02    7.3973e+02 ;     N3 - C6     - C1    
     2      3      4      1    1.8000e+02    6.4183e+02 ;     N3 - C7     - C8    
     3      2      6      1    1.1478e+02    4.2007e+02 ;     C7 - N3     - H6    
     3      4      5      1    1.8000e+02    4.7965e+02 ;     C7 - C8     - C9    
     4      5      7      1    1.1381e+02    5.7614e+02 ;     C8 - C9     - C10   
     5      1     20      1    1.2408e+02    5.4785e+02 ;     C9 - C6     - C1    
     5      7      8      1    1.2455e+02    7.3973e+02 ;     C9 - C10    - N4    
     5      7     11      1    1.2408e+02    5.4785e+02 ;     C9 - C10    - C13   
     7      8      9      1    1.2401e+02    5.5408e+02 ;    C10 - N4     - C11   
     7      8     12      1    1.1938e+02    4.1422e+02 ;    C10 - N4     - H9    
     7     11     10      1    1.1381e+02    5.7614e+02 ;    C10 - C13    - C12   
     7     11     13      1    1.2408e+02    5.4785e+02 ;    C10 - C13    - C14   
     8      7     11      1    1.2455e+02    7.3973e+02 ;     N4 - C10    - C13   
     8      9     10      1    1.8000e+02    6.4183e+02 ;     N4 - C11    - C12   
     9      8     12      1    1.1478e+02    4.2007e+02 ;    C11 - N4     - H9    
     9     10     11      1    1.8000e+02    4.7965e+02 ;    C11 - C12    - C13   
    10     11     13      1    1.1381e+02    5.7614e+02 ;    C12 - C13    - C14   
    11     13     14      1    1.1381e+02    5.7614e+02 ;    C13 - C14    - C15   
    11     13     18      1    1.1381e+02    5.7614e+02 ;    C13 - C14    - C19   
    13     14     15      1    1.8000e+02    4.7965e+02 ;    C14 - C15    - C16   
    13     18     17      1    1.8000e+02    4.7965e+02 ;    C14 - C19    - C18   
    14     13     18      1    2.5140e+01    1.2349e+03 ;    C15 - C14    - C19   
    14     15     16      1    1.1612e+02    6.2643e+02 ;    C15 - C16    - C17   
    15     16     17      1    1.1612e+02    6.2643e+02 ;    C16 - C17    - C18   
    16     17     18      1    1.1612e+02    6.2643e+02 ;    C17 - C18    - C19   
    19     20     21      1    1.1746e+02    6.2843e+02 ;     O1 - C1     - N1    
    20     21     22      1    1.1790e+02    4.0166e+02 ;     C1 - N1     - H1    
    20     21     23      1    1.2332e+02    6.4894e+02 ;     C1 - N1     - C2    
    21     23     24      1    1.1500e+02    6.0153e+02 ;     N1 - C2     - C3    
    21     23     27      1    1.1500e+02    6.0153e+02 ;     N1 - C2     - C5    
    22     21     23      1    1.1790e+02    4.0166e+02 ;     H1 - N1     - C2    
    23     24     25      1    1.8000e+02    4.7965e+02 ;     C2 - C3     - C4    
    23     27     26      1    1.7969e+02    4.9155e+02 ;     C2 - C5     - N2    
    24     23     27      1    2.5140e+01    1.2349e+03 ;     C3 - C2     - C5    
    24     25     26      1    1.8000e+02    6.4183e+02 ;     C3 - C4     - N2    
    25     26     27      1    6.2830e+01    9.5630e+02 ;     C4 - N2     - C5    
    25     26     28      1    1.1478e+02    4.2007e+02 ;     C4 - N2     - H4    
    27     26     28      1    1.1478e+02    4.2007e+02 ;     C5 - N2     - H4    

[ dihedrals ] ; propers
; for gromacs 4.5 or higher, using funct 9
;    i      j      k      l   func   phase     kd      pn
     1      2      3      4      9   180.00   0.00000   2 ;     C6-    N3-    C7-    C8
     1      5      4      3      9   180.00   0.00000   2 ;     C6-    C9-    C8-    C7
     1      5      7      8      9   180.00  27.82360   2 ;     C6-    C9-   C10-    N4
     1      5      7     11      9   180.00  27.82360   2 ;     C6-    C9-   C10-   C13
     1     20     21     22      9   180.00   2.71960   2 ;     C6-    C1-    N1-    H1
     1     20     21     23      9   180.00   2.71960   2 ;     C6-    C1-    N1-    C2
     2      1      5      4      9   180.00  27.82360   2 ;     N3-    C6-    C9-    C8
     2      1      5      7      9   180.00  27.82360   2 ;     N3-    C6-    C9-   C10
     2      1     20     19      9   180.00  27.82360   2 ;     N3-    C6-    C1-    O1
     2      1     20     21      9   180.00  27.82360   2 ;     N3-    C6-    C1-    N1
     2      3      4      5      9   180.00   0.00000   2 ;     N3-    C7-    C8-    C9
     3      4      5      7      9   180.00   0.00000   2 ;     C7-    C8-    C9-   C10
     4      3      2      6      9   180.00   0.00000   2 ;     C8-    C7-    N3-    H6
     4      5      7      8      9   180.00  27.82360   2 ;     C8-    C9-   C10-    N4
     4      5      7     11      9   180.00  27.82360   2 ;     C8-    C9-   C10-   C13
     5      1      2      3      9   180.00   1.25520   2 ;     C9-    C6-    N3-    C7
     5      1      2      6      9   180.00   1.25520   2 ;     C9-    C6-    N3-    H6
     5      1     20     19      9   180.00  27.82360   2 ;     C9-    C6-    C1-    O1
     5      1     20     21      9   180.00  27.82360   2 ;     C9-    C6-    C1-    N1
     5      7      8      9      9   180.00   1.25520   2 ;     C9-   C10-    N4-   C11
     5      7      8     12      9   180.00   1.25520   2 ;     C9-   C10-    N4-    H9
     5      7     11     10      9   180.00  27.82360   2 ;     C9-   C10-   C13-   C12
     5      7     11     13      9   180.00  27.82360   2 ;     C9-   C10-   C13-   C14
     7      8      9     10      9   180.00   0.00000   2 ;    C10-    N4-   C11-   C12
     7     11     10      9      9   180.00   0.00000   2 ;    C10-   C13-   C12-   C11
     7     11     13     14      9   180.00  27.82360   2 ;    C10-   C13-   C14-   C15
     7     11     13     18      9   180.00  27.82360   2 ;    C10-   C13-   C14-   C19
     8      7     11     10      9   180.00  27.82360   2 ;     N4-   C10-   C13-   C12
     8      7     11     13      9   180.00  27.82360   2 ;     N4-   C10-   C13-   C14
     8      9     10     11      9   180.00   0.00000   2 ;     N4-   C11-   C12-   C13
     9      8      7     11      9   180.00   1.25520   2 ;    C11-    N4-   C10-   C13
     9     10     11     13      9   180.00   0.00000   2 ;    C11-   C12-   C13-   C14
    10      9      8     12      9   180.00   0.00000   2 ;    C12-   C11-    N4-    H9
    10     11     13     14      9   180.00  27.82360   2 ;    C12-   C13-   C14-   C15
    10     11     13     18      9   180.00  27.82360   2 ;    C12-   C13-   C14-   C19
    11      7      8     12      9   180.00   1.25520   2 ;    C13-   C10-    N4-    H9
    11     13     14     15      9   180.00   0.00000   2 ;    C13-   C14-   C15-   C16
    11     13     18     17      9   180.00   0.00000   2 ;    C13-   C14-   C19-   C18
    13     14     15     16      9   180.00   0.00000   2 ;    C14-   C15-   C16-   C17
    13     18     17     16      9   180.00   0.00000   2 ;    C14-   C19-   C18-   C17
    14     13     18     17      9   180.00   0.00000   2 ;    C15-   C14-   C19-   C18
    14     15     16     17      9   180.00   0.00000   2 ;    C15-   C16-   C17-   C18
    15     14     13     18      9   180.00   0.00000   2 ;    C16-   C15-   C14-   C19
    15     16     17     18      9   180.00   0.00000   2 ;    C16-   C17-   C18-   C19
    19     20     21     22      9   180.00   2.71960   2 ;     O1-    C1-    N1-    H1
    19     20     21     23      9   180.00   2.71960   2 ;     O1-    C1-    N1-    C2
    20      1      2      3      9   180.00   1.25520   2 ;     C1-    C6-    N3-    C7
    20      1      2      6      9   180.00   1.25520   2 ;     C1-    C6-    N3-    H6
    20      1      5      4      9   180.00  27.82360   2 ;     C1-    C6-    C9-    C8
    20      1      5      7      9   180.00  27.82360   2 ;     C1-    C6-    C9-   C10
    20     21     23     24      9   180.00   2.71960   2 ;     C1-    N1-    C2-    C3
    20     21     23     27      9   180.00   2.71960   2 ;     C1-    N1-    C2-    C5
    21     23     24     25      9   180.00   0.00000   2 ;     N1-    C2-    C3-    C4
    21     23     27     26      9   180.00   0.00000   2 ;     N1-    C2-    C5-    N2
    22     21     23     24      9   180.00   2.71960   2 ;     H1-    N1-    C2-    C3
    22     21     23     27      9   180.00   2.71960   2 ;     H1-    N1-    C2-    C5
    23     24     25     26      9   180.00   0.00000   2 ;     C2-    C3-    C4-    N2
    23     27     26     25      9   180.00   0.00000   2 ;     C2-    C5-    N2-    C4
    23     27     26     28      9   180.00   0.00000   2 ;     C2-    C5-    N2-    H4
    24     23     27     26      9   180.00   0.00000   2 ;     C3-    C2-    C5-    N2
    24     25     26     27      9   180.00   0.00000   2 ;     C3-    C4-    N2-    C5
    24     25     26     28      9   180.00   0.00000   2 ;     C3-    C4-    N2-    H4
    25     24     23     27      9   180.00   0.00000   2 ;     C4-    C3-    C2-    C5

[ dihedrals ] ; impropers
; treated as propers in GROMACS to use correct AMBER analytical function
;    i      j      k      l   func   phase     kd      pn
     1     21     20     19      4   180.00   4.60240   2 ;     C6-    N1-    C1-    O1
     2      1     20      5      4   180.00   4.60240   2 ;     N3-    C6-    C1-    C9
     4      1      5      7      4   180.00   4.60240   2 ;     C8-    C6-    C9-   C10
     5     11      7      8      4   180.00   4.60240   2 ;     C9-   C13-   C10-    N4
    10      7     11     13      4   180.00   4.60240   2 ;    C12-   C10-   C13-   C14
    14     18     13     11      4   180.00   4.60240   2 ;    C15-   C19-   C14-   C13
    20     23     21     22      4   180.00   4.60240   2 ;     C1-    C2-    N1-    H1
    24     27     23     21      4   180.00   4.60240   2 ;     C3-    C5-    C2-    N1

