[ atomtypes ]
;name   bond_type     mass     charge   ptype   sigma         epsilon       Amb
 c2       c2          0.00000  0.00000   A     3.31521e-01   4.13379e-01 ; 1.86  0.0988
 c1       c1          0.00000  0.00000   A     3.47896e-01   6.67766e-01 ; 1.95  0.1596
 n3       n3          0.00000  0.00000   A     3.36510e-01   3.58987e-01 ; 1.89  0.0858
 hn       hn          0.00000  0.00000   A     1.10650e-01   4.18400e-02 ; 0.62  0.0100

