; EAI045_GMX.top created by acpype (v: 2023.10.27) on Wed Sep 30 13:10:33 2026

[ defaults ]
; nbfunc        comb-rule       gen-pairs       fudgeLJ fudgeQQ
1               2               yes             0.5     0.8333333333

[ atomtypes ]
;name   bond_type     mass     charge   ptype   sigma         epsilon       Amb
 c2       c2          0.00000  0.00000   A     3.31521e-01   4.13379e-01 ; 1.86  0.0988
 n        n           0.00000  0.00000   A     3.18086e-01   6.84502e-01 ; 1.79  0.1636
 c1       c1          0.00000  0.00000   A     3.47896e-01   6.67766e-01 ; 1.95  0.1596
 o        o           0.00000  0.00000   A     3.04812e-01   6.12119e-01 ; 1.71  0.1463
 n2       n2          0.00000  0.00000   A     3.38417e-01   3.93714e-01 ; 1.90  0.0941
 ss       ss          0.00000  0.00000   A     3.53241e-01   1.18156e+00 ; 1.98  0.2824
 hn       hn          0.00000  0.00000   A     1.10650e-01   4.18400e-02 ; 0.62  0.0100

[ moleculetype ]
;name            nrexcl
 EAI045           3

[ atoms ]
;   nr  type  resi  res  atom  cgnr     charge      mass       ; qtot   bond_type
     1   c2     1   UNL    C5    1    -0.006000     12.01000 ; qtot -0.006
     2    n     1   UNL    N3    2    -0.148000     14.01000 ; qtot -0.154
     3   c1     1   UNL   C12    3     0.002000     12.01000 ; qtot -0.152
     4   c2     1   UNL   C13    4     0.095000     12.01000 ; qtot -0.057
     5   c1     1   UNL   C14    5    -0.076000     12.01000 ; qtot -0.133
     6   c1     1   UNL   C15    6     0.057000     12.01000 ; qtot -0.076
     7   c1     1   UNL   C16    7     0.016000     12.01000 ; qtot -0.060
     8   c1     1   UNL   C17    8    -0.020000     12.01000 ; qtot -0.080
     9   c2     1   UNL   C18    9    -0.090000     12.01000 ; qtot -0.170
    10   c2     1   UNL   C19   10     0.397000     12.01000 ; qtot 0.227
    11    o     1   UNL    O2   11    -0.172000     16.00000 ; qtot 0.055
    12    o     1   UNL    O1   12    -0.278000     16.00000 ; qtot -0.223
    13   c2     1   UNL    C1   13     0.331000     12.01000 ; qtot 0.108
    14    n     1   UNL    N1   14    -0.283000     14.01000 ; qtot -0.175
    15   c2     1   UNL    C2   15     0.059000     12.01000 ; qtot -0.116
    16   n2     1   UNL    N2   16    -0.018000     14.01000 ; qtot -0.134
    17   c1     1   UNL    C3   17    -0.103000     12.01000 ; qtot -0.237
    18   c1     1   UNL    C4   18    -0.270000     12.01000 ; qtot -0.507
    19   ss     1   UNL    S1   19     0.342000     32.06000 ; qtot -0.165
    20   hn     1   UNL    H1   20     0.283000      1.00800 ; qtot 0.118
    21   c2     1   UNL    C6   21    -0.010000     12.01000 ; qtot 0.108
    22   c1     1   UNL    C7   22    -0.045500     12.01000 ; qtot 0.063
    23   c1     1   UNL    C8   23    -0.013500     12.01000 ; qtot 0.049
    24   c1     1   UNL    C9   24     0.010000     12.01000 ; qtot 0.059
    25   c1     1   UNL   C10   25    -0.013500     12.01000 ; qtot 0.046
    26   c1     1   UNL   C11   26    -0.045500     12.01000 ; qtot 0.000

[ bonds ]
;   ai     aj funct   r             k
     1      2   1    1.4001e-01    2.6265e+05 ;     C5 - N3    
     1     13   1    1.3379e-01    3.6484e+05 ;     C5 - C1    
     1     21   1    1.3379e-01    3.6484e+05 ;     C5 - C6    
     2      3   1    1.3300e-01    3.5890e+05 ;     N3 - C12   
     2     10   1    1.4001e-01    2.6265e+05 ;     N3 - C19   
     3      4   1    1.3185e-01    3.9066e+05 ;    C12 - C13   
     4      5   1    1.3185e-01    3.9066e+05 ;    C13 - C14   
     4      9   1    1.3379e-01    3.6484e+05 ;    C13 - C18   
     5      6   1    1.2095e-01    5.8503e+05 ;    C14 - C15   
     6      7   1    1.2095e-01    5.8503e+05 ;    C15 - C16   
     7      8   1    1.2095e-01    5.8503e+05 ;    C16 - C17   
     8      9   1    1.3185e-01    3.9066e+05 ;    C17 - C18   
     9     10   1    1.3379e-01    3.6484e+05 ;    C18 - C19   
    10     11   1    1.2249e-01    4.8317e+05 ;    C19 - O2    
    12     13   1    1.2249e-01    4.8317e+05 ;     O1 - C1    
    13     14   1    1.4001e-01    2.6265e+05 ;     C1 - N1    
    14     15   1    1.4001e-01    2.6265e+05 ;     N1 - C2    
    14     20   1    1.0130e-01    4.4124e+05 ;     N1 - H1    
    15     16   1    1.2809e-01    3.9831e+05 ;     C2 - N2    
    15     19   1    1.7842e-01    1.7887e+05 ;     C2 - S1    
    16     17   1    1.1951e-01    5.5099e+05 ;     N2 - C3    
    17     18   1    1.2095e-01    5.8503e+05 ;     C3 - C4    
    18     19   1    1.6920e-01    2.2929e+05 ;     C4 - S1    
    21     22   1    1.3185e-01    3.9066e+05 ;     C6 - C7    
    21     26   1    1.3185e-01    3.9066e+05 ;     C6 - C11   
    22     23   1    1.2095e-01    5.8503e+05 ;     C7 - C8    
    23     24   1    1.2095e-01    5.8503e+05 ;     C8 - C9    
    24     25   1    1.2095e-01    5.8503e+05 ;     C9 - C10   
    25     26   1    1.2095e-01    5.8503e+05 ;    C10 - C11   

[ pairs ]
;   ai     aj    funct
     1      4      1 ;     C5 - C13   
     1      9      1 ;     C5 - C18   
     1     11      1 ;     C5 - O2    
     1     15      1 ;     C5 - C2    
     1     20      1 ;     C5 - H1    
     1     23      1 ;     C5 - C8    
     1     25      1 ;     C5 - C10   
     2      5      1 ;     N3 - C14   
     2      8      1 ;     N3 - C17   
     2     12      1 ;     N3 - O1    
     2     14      1 ;     N3 - N1    
     2     22      1 ;     N3 - C7    
     2     26      1 ;     N3 - C11   
     3      6      1 ;    C12 - C15   
     3      8      1 ;    C12 - C17   
     3     11      1 ;    C12 - O2    
     4      7      1 ;    C13 - C16   
     4     11      1 ;    C13 - O2    
     5      8      1 ;    C14 - C17   
     5     10      1 ;    C14 - C19   
     6      9      1 ;    C15 - C18   
     7     10      1 ;    C16 - C19   
     8     11      1 ;    C17 - O2    
    12     15      1 ;     O1 - C2    
    12     20      1 ;     O1 - H1    
    13      3      1 ;     C1 - C12   
    13     10      1 ;     C1 - C19   
    13     16      1 ;     C1 - N2    
    13     19      1 ;     C1 - S1    
    13     22      1 ;     C1 - C7    
    13     26      1 ;     C1 - C11   
    14     17      1 ;     N1 - C3    
    14     18      1 ;     N1 - C4    
    16     20      1 ;     N2 - H1    
    19     20      1 ;     S1 - H1    
    21      3      1 ;     C6 - C12   
    21     10      1 ;     C6 - C19   
    21     12      1 ;     C6 - O1    
    21     14      1 ;     C6 - N1    
    21     24      1 ;     C6 - C9    
    22     25      1 ;     C7 - C10   
    23     26      1 ;     C8 - C11   

[ angles ]
;   ai     aj     ak    funct   theta         cth
     1      2      3      1    1.1888e+02    5.5396e+02 ;     C5 - N3     - C12   
     1      2     10      1    1.2332e+02    6.4894e+02 ;     C5 - N3     - C19   
     1     13     12      1    1.3089e+02    7.5145e+02 ;     C5 - C1     - O1    
     1     13     14      1    1.2429e+02    5.6727e+02 ;     C5 - C1     - N1    
     1     21     22      1    1.1381e+02    5.7614e+02 ;     C5 - C6     - C7    
     1     21     26      1    1.1381e+02    5.7614e+02 ;     C5 - C6     - C11   
     2      1     13      1    1.2429e+02    5.6727e+02 ;     N3 - C5     - C1    
     2      1     21      1    1.2429e+02    5.6727e+02 ;     N3 - C5     - C6    
     2      3      4      1    1.7969e+02    4.9497e+02 ;     N3 - C12    - C13   
     2     10      9      1    1.2429e+02    5.6727e+02 ;     N3 - C19    - C18   
     2     10     11      1    1.1746e+02    6.2843e+02 ;     N3 - C19    - O2    
     3      2     10      1    1.1888e+02    5.5396e+02 ;    C12 - N3     - C19   
     3      4      5      1    2.5140e+01    1.2349e+03 ;    C12 - C13    - C14   
     3      4      9      1    1.1381e+02    5.7614e+02 ;    C12 - C13    - C18   
     4      5      6      1    1.8000e+02    4.7965e+02 ;    C13 - C14    - C15   
     4      9      8      1    1.1381e+02    5.7614e+02 ;    C13 - C18    - C17   
     4      9     10      1    1.2408e+02    5.4785e+02 ;    C13 - C18    - C19   
     5      4      9      1    1.1381e+02    5.7614e+02 ;    C14 - C13    - C18   
     5      6      7      1    1.1612e+02    6.2643e+02 ;    C14 - C15    - C16   
     6      7      8      1    1.1612e+02    6.2643e+02 ;    C15 - C16    - C17   
     7      8      9      1    1.8000e+02    4.7965e+02 ;    C16 - C17    - C18   
     8      9     10      1    1.1381e+02    5.7614e+02 ;    C17 - C18    - C19   
     9     10     11      1    1.3089e+02    7.5145e+02 ;    C18 - C19    - O2    
    12     13     14      1    1.1746e+02    6.2843e+02 ;     O1 - C1     - N1    
    13      1     21      1    1.2408e+02    5.4785e+02 ;     C1 - C5     - C6    
    13     14     15      1    1.2332e+02    6.4894e+02 ;     C1 - N1     - C2    
    13     14     20      1    1.1790e+02    4.0166e+02 ;     C1 - N1     - H1    
    14     15     16      1    1.2172e+02    6.1957e+02 ;     N1 - C2     - N2    
    14     15     19      1    1.1128e+02    5.8216e+02 ;     N1 - C2     - S1    
    15     14     20      1    1.1790e+02    4.0166e+02 ;     C2 - N1     - H1    
    15     16     17      1    1.1964e+02    6.1019e+02 ;     C2 - N2     - C3    
    15     19     18      1    9.8930e+01    5.4187e+02 ;     C2 - S1     - C4    
    16     15     19      1    1.2265e+02    5.6199e+02 ;     N2 - C2     - S1    
    16     17     18      1    1.8000e+02    6.8701e+02 ;     N2 - C3     - C4    
    17     18     19      1    1.7585e+02    4.6643e+02 ;     C3 - C4     - S1    
    21     22     23      1    1.8000e+02    4.7965e+02 ;     C6 - C7     - C8    
    21     26     25      1    1.8000e+02    4.7965e+02 ;     C6 - C11    - C10   
    22     21     26      1    2.5140e+01    1.2349e+03 ;     C7 - C6     - C11   
    22     23     24      1    1.1612e+02    6.2643e+02 ;     C7 - C8     - C9    
    23     24     25      1    1.1612e+02    6.2643e+02 ;     C8 - C9     - C10   
    24     25     26      1    1.1612e+02    6.2643e+02 ;     C9 - C10    - C11   

[ dihedrals ] ; propers
; for gromacs 4.5 or higher, using funct 9
;    i      j      k      l   func   phase     kd      pn
     1      2      3      4      9   180.00   0.00000   2 ;     C5-    N3-   C12-   C13
     1      2     10      9      9   180.00   2.71960   2 ;     C5-    N3-   C19-   C18
     1      2     10     11      9   180.00   2.71960   2 ;     C5-    N3-   C19-    O2
     1     13     14     15      9   180.00   2.71960   2 ;     C5-    C1-    N1-    C2
     1     13     14     20      9   180.00   2.71960   2 ;     C5-    C1-    N1-    H1
     1     21     22     23      9   180.00   0.00000   2 ;     C5-    C6-    C7-    C8
     1     21     26     25      9   180.00   0.00000   2 ;     C5-    C6-   C11-   C10
     2      1     13     12      9   180.00  27.82360   2 ;     N3-    C5-    C1-    O1
     2      1     13     14      9   180.00  27.82360   2 ;     N3-    C5-    C1-    N1
     2      1     21     22      9   180.00  27.82360   2 ;     N3-    C5-    C6-    C7
     2      1     21     26      9   180.00  27.82360   2 ;     N3-    C5-    C6-   C11
     2      3      4      5      9   180.00   0.00000   2 ;     N3-   C12-   C13-   C14
     2      3      4      9      9   180.00   0.00000   2 ;     N3-   C12-   C13-   C18
     2     10      9      4      9   180.00  27.82360   2 ;     N3-   C19-   C18-   C13
     2     10      9      8      9   180.00  27.82360   2 ;     N3-   C19-   C18-   C17
     3      2     10      9      9   180.00   2.71960   2 ;    C12-    N3-   C19-   C18
     3      2     10     11      9   180.00   2.71960   2 ;    C12-    N3-   C19-    O2
     3      4      5      6      9   180.00   0.00000   2 ;    C12-   C13-   C14-   C15
     3      4      9      8      9   180.00  27.82360   2 ;    C12-   C13-   C18-   C17
     3      4      9     10      9   180.00  27.82360   2 ;    C12-   C13-   C18-   C19
     4      3      2     10      9   180.00   0.00000   2 ;    C13-   C12-    N3-   C19
     4      5      6      7      9   180.00   0.00000   2 ;    C13-   C14-   C15-   C16
     4      9      8      7      9   180.00   0.00000   2 ;    C13-   C18-   C17-   C16
     4      9     10     11      9   180.00  27.82360   2 ;    C13-   C18-   C19-    O2
     5      4      9      8      9   180.00  27.82360   2 ;    C14-   C13-   C18-   C17
     5      4      9     10      9   180.00  27.82360   2 ;    C14-   C13-   C18-   C19
     5      6      7      8      9   180.00   0.00000   2 ;    C14-   C15-   C16-   C17
     6      5      4      9      9   180.00   0.00000   2 ;    C15-   C14-   C13-   C18
     6      7      8      9      9   180.00   0.00000   2 ;    C15-   C16-   C17-   C18
     7      8      9     10      9   180.00   0.00000   2 ;    C16-   C17-   C18-   C19
     8      9     10     11      9   180.00  27.82360   2 ;    C17-   C18-   C19-    O2
    12     13     14     15      9   180.00   2.71960   2 ;     O1-    C1-    N1-    C2
    12     13     14     20      9   180.00   2.71960   2 ;     O1-    C1-    N1-    H1
    13      1      2      3      9   180.00   2.71960   2 ;     C1-    C5-    N3-   C12
    13      1      2     10      9   180.00   2.71960   2 ;     C1-    C5-    N3-   C19
    13      1     21     22      9   180.00  27.82360   2 ;     C1-    C5-    C6-    C7
    13      1     21     26      9   180.00  27.82360   2 ;     C1-    C5-    C6-   C11
    13     14     15     16      9   180.00   2.71960   2 ;     C1-    N1-    C2-    N2
    13     14     15     19      9   180.00   2.71960   2 ;     C1-    N1-    C2-    S1
    14     15     16     17      9   180.00  17.36360   2 ;     N1-    C2-    N2-    C3
    14     15     19     18      9   180.00   4.60240   2 ;     N1-    C2-    S1-    C4
    15     16     17     18      9   180.00   0.00000   2 ;     C2-    N2-    C3-    C4
    15     19     18     17      9   180.00   0.00000   2 ;     C2-    S1-    C4-    C3
    16     15     14     20      9   180.00   2.71960   2 ;     N2-    C2-    N1-    H1
    16     15     19     18      9   180.00   4.60240   2 ;     N2-    C2-    S1-    C4
    16     17     18     19      9   180.00   0.00000   2 ;     N2-    C3-    C4-    S1
    17     16     15     19      9   180.00  17.36360   2 ;     C3-    N2-    C2-    S1
    19     15     14     20      9   180.00   2.71960   2 ;     S1-    C2-    N1-    H1
    21      1      2      3      9   180.00   2.71960   2 ;     C6-    C5-    N3-   C12
    21      1      2     10      9   180.00   2.71960   2 ;     C6-    C5-    N3-   C19
    21      1     13     12      9   180.00  27.82360   2 ;     C6-    C5-    C1-    O1
    21      1     13     14      9   180.00  27.82360   2 ;     C6-    C5-    C1-    N1
    21     22     23     24      9   180.00   0.00000   2 ;     C6-    C7-    C8-    C9
    21     26     25     24      9   180.00   0.00000   2 ;     C6-   C11-   C10-    C9
    22     21     26     25      9   180.00   0.00000   2 ;     C7-    C6-   C11-   C10
    22     23     24     25      9   180.00   0.00000   2 ;     C7-    C8-    C9-   C10
    23     22     21     26      9   180.00   0.00000   2 ;     C8-    C7-    C6-   C11
    23     24     25     26      9   180.00   0.00000   2 ;     C8-    C9-   C10-   C11

[ dihedrals ] ; impropers
; treated as propers in GROMACS to use correct AMBER analytical function
;    i      j      k      l   func   phase     kd      pn
     1     14     13     12      4   180.00   4.60240   2 ;     C5-    N1-    C1-    O1
     1     21     26     22      4   180.00   4.60240   2 ;     C5-    C6-   C11-    C7
     2      1     21     13      4   180.00   4.60240   2 ;     N3-    C5-    C6-    C1
     3      1      2     10      4   180.00   4.60240   2 ;    C12-    C5-    N3-   C19
     3      5      4      9      4   180.00   4.60240   2 ;    C12-   C14-   C13-   C18
     8      4      9     10      4   180.00   4.60240   2 ;    C17-   C13-   C18-   C19
     9      2     10     11      4   180.00   4.60240   2 ;    C18-    N3-   C19-    O2
    13     15     14     20      4   180.00   4.60240   2 ;     C1-    C2-    N1-    H1
    14     16     15     19      4   180.00   4.60240   2 ;     N1-    N2-    C2-    S1

[ system ]
 EAI045

[ molecules ]
; Compound        nmols
 EAI045           1     
