; decoy_0454_GMX.top created by acpype (v: 2023.10.27) on Wed Sep 30 13:13:23 2026

[ defaults ]
; nbfunc        comb-rule       gen-pairs       fudgeLJ fudgeQQ
1               2               yes             0.5     0.8333333333

[ atomtypes ]
;name   bond_type     mass     charge   ptype   sigma         epsilon       Amb
 c2       c2          0.00000  0.00000   A     3.31521e-01   4.13379e-01 ; 1.86  0.0988
 c1       c1          0.00000  0.00000   A     3.47896e-01   6.67766e-01 ; 1.95  0.1596
 n3       n3          0.00000  0.00000   A     3.36510e-01   3.58987e-01 ; 1.89  0.0858
 hn       hn          0.00000  0.00000   A     1.10650e-01   4.18400e-02 ; 0.62  0.0100

[ moleculetype ]
;name            nrexcl
 decoy_0454       3

[ atoms ]
;   nr  type  resi  res  atom  cgnr     charge      mass       ; qtot   bond_type
     1   c2     1   UNL    C6    1     0.178000     12.01000 ; qtot 0.178
     2   c1     1   UNL    C7    2    -0.097000     12.01000 ; qtot 0.081
     3   c1     1   UNL    C8    3    -0.072000     12.01000 ; qtot 0.009
     4   n3     1   UNL    N1    4    -0.126000     14.01000 ; qtot -0.117
     5   c1     1   UNL    C9    5     0.239000     12.01000 ; qtot 0.122
     6   c2     1   UNL   C10    6    -0.078000     12.01000 ; qtot 0.044
     7   hn     1   UNL   H11    7     0.280000      1.00800 ; qtot 0.324
     8   c2     1   UNL   C11    8    -0.014000     12.01000 ; qtot 0.310
     9   c1     1   UNL   C12    9    -0.215500     12.01000 ; qtot 0.094
    10   c1     1   UNL   C13   10     0.085500     12.01000 ; qtot 0.180
    11   n3     1   UNL    N2   11    -0.155000     14.01000 ; qtot 0.025
    12   c1     1   UNL   C14   12     0.085500     12.01000 ; qtot 0.110
    13   c1     1   UNL   C15   13    -0.215500     12.01000 ; qtot -0.105
    14   hn     1   UNL   H20   14     0.278000      1.00800 ; qtot 0.173
    15   c1     1   UNL    C5   15     0.009000     12.01000 ; qtot 0.182
    16   c1     1   UNL    C1   16     0.123000     12.01000 ; qtot 0.305
    17   c1     1   UNL    C2   17    -0.189500     12.01000 ; qtot 0.115
    18   c1     1   UNL    C3   18     0.040000     12.01000 ; qtot 0.155
    19   c2     1   UNL    C4   19    -0.006000     12.01000 ; qtot 0.149
    20   c1     1   UNL   C16   20     0.040000     12.01000 ; qtot 0.190
    21   c1     1   UNL   C17   21    -0.189500     12.01000 ; qtot 0.000

[ bonds ]
;   ai     aj funct   r             k
     1      2   1    1.3185e-01    3.9066e+05 ;     C6 - C7    
     1      6   1    1.3379e-01    3.6484e+05 ;     C6 - C10   
     1     15   1    1.3185e-01    3.9066e+05 ;     C6 - C5    
     2      3   1    1.2095e-01    5.8503e+05 ;     C7 - C8    
     3      4   1    1.3310e-01    3.3285e+05 ;     C8 - N1    
     4      5   1    1.3310e-01    3.3285e+05 ;     N1 - C9    
     4      7   1    1.0190e-01    4.2786e+05 ;     N1 - H11   
     5      6   1    1.3185e-01    3.9066e+05 ;     C9 - C10   
     6      8   1    1.3379e-01    3.6484e+05 ;    C10 - C11   
     8      9   1    1.3185e-01    3.9066e+05 ;    C11 - C12   
     8     13   1    1.3185e-01    3.9066e+05 ;    C11 - C15   
     9     10   1    1.2095e-01    5.8503e+05 ;    C12 - C13   
    10     11   1    1.3310e-01    3.3285e+05 ;    C13 - N2    
    11     12   1    1.3310e-01    3.3285e+05 ;     N2 - C14   
    11     14   1    1.0190e-01    4.2786e+05 ;     N2 - H20   
    12     13   1    1.2095e-01    5.8503e+05 ;    C14 - C15   
    15     19   1    1.3185e-01    3.9066e+05 ;     C5 - C4    
    16     17   1    1.2095e-01    5.8503e+05 ;     C1 - C2    
    16     21   1    1.2095e-01    5.8503e+05 ;     C1 - C17   
    17     18   1    1.2095e-01    5.8503e+05 ;     C2 - C3    
    18     19   1    1.3185e-01    3.9066e+05 ;     C3 - C4    
    19     20   1    1.3185e-01    3.9066e+05 ;     C4 - C16   
    20     21   1    1.2095e-01    5.8503e+05 ;    C16 - C17   

[ pairs ]
;   ai     aj    funct
     1      4      1 ;     C6 - N1    
     1      9      1 ;     C6 - C12   
     1     13      1 ;     C6 - C15   
     1     18      1 ;     C6 - C3    
     1     20      1 ;     C6 - C16   
     2      5      1 ;     C7 - C9    
     2      7      1 ;     C7 - H11   
     2      8      1 ;     C7 - C11   
     2     19      1 ;     C7 - C4    
     4      8      1 ;     N1 - C11   
     5      9      1 ;     C9 - C12   
     5     13      1 ;     C9 - C15   
     6      3      1 ;    C10 - C8    
     6      7      1 ;    C10 - H11   
     6     10      1 ;    C10 - C13   
     6     12      1 ;    C10 - C14   
     6     19      1 ;    C10 - C4    
     8     11      1 ;    C11 - N2    
     9     12      1 ;    C12 - C14   
     9     14      1 ;    C12 - H20   
    10     13      1 ;    C13 - C15   
    13     14      1 ;    C15 - H20   
    15      3      1 ;     C5 - C8    
    15      5      1 ;     C5 - C9    
    15      8      1 ;     C5 - C11   
    15     17      1 ;     C5 - C2    
    15     21      1 ;     C5 - C17   
    16     19      1 ;     C1 - C4    
    17     20      1 ;     C2 - C16   
    18     21      1 ;     C3 - C17   

[ angles ]
;   ai     aj     ak    funct   theta         cth
     1      2      3      1    1.8000e+02    4.7965e+02 ;     C6 - C7     - C8    
     1      6      5      1    1.1381e+02    5.7614e+02 ;     C6 - C10    - C9    
     1      6      8      1    1.2408e+02    5.4785e+02 ;     C6 - C10    - C11   
     1     15     19      1    1.7933e+02    4.6242e+02 ;     C6 - C5     - C4    
     2      1      6      1    1.1381e+02    5.7614e+02 ;     C7 - C6     - C10   
     2      1     15      1    2.5140e+01    1.2349e+03 ;     C7 - C6     - C5    
     2      3      4      1    1.8000e+02    6.4183e+02 ;     C7 - C8     - N1    
     3      4      5      1    6.2830e+01    9.5630e+02 ;     C8 - N1     - C9    
     3      4      7      1    1.1478e+02    4.2007e+02 ;     C8 - N1     - H11   
     4      5      6      1    1.7969e+02    4.9155e+02 ;     N1 - C9     - C10   
     5      4      7      1    1.1478e+02    4.2007e+02 ;     C9 - N1     - H11   
     5      6      8      1    1.1381e+02    5.7614e+02 ;     C9 - C10    - C11   
     6      1     15      1    1.1381e+02    5.7614e+02 ;    C10 - C6     - C5    
     6      8      9      1    1.1381e+02    5.7614e+02 ;    C10 - C11    - C12   
     6      8     13      1    1.1381e+02    5.7614e+02 ;    C10 - C11    - C15   
     8      9     10      1    1.8000e+02    4.7965e+02 ;    C11 - C12    - C13   
     8     13     12      1    1.8000e+02    4.7965e+02 ;    C11 - C15    - C14   
     9      8     13      1    2.5140e+01    1.2349e+03 ;    C12 - C11    - C15   
     9     10     11      1    1.8000e+02    6.4183e+02 ;    C12 - C13    - N2    
    10     11     12      1    6.2830e+01    9.5630e+02 ;    C13 - N2     - C14   
    10     11     14      1    1.1478e+02    4.2007e+02 ;    C13 - N2     - H20   
    11     12     13      1    1.8000e+02    6.4183e+02 ;     N2 - C14    - C15   
    12     11     14      1    1.1478e+02    4.2007e+02 ;    C14 - N2     - H20   
    15     19     18      1    2.5140e+01    1.2349e+03 ;     C5 - C4     - C3    
    15     19     20      1    2.5140e+01    1.2349e+03 ;     C5 - C4     - C16   
    16     17     18      1    1.1612e+02    6.2643e+02 ;     C1 - C2     - C3    
    16     21     20      1    1.1612e+02    6.2643e+02 ;     C1 - C17    - C16   
    17     16     21      1    1.1612e+02    6.2643e+02 ;     C2 - C1     - C17   
    17     18     19      1    1.8000e+02    4.7965e+02 ;     C2 - C3     - C4    
    18     19     20      1    2.5140e+01    1.2349e+03 ;     C3 - C4     - C16   
    19     20     21      1    1.8000e+02    4.7965e+02 ;     C4 - C16    - C17   

[ dihedrals ] ; propers
; for gromacs 4.5 or higher, using funct 9
;    i      j      k      l   func   phase     kd      pn
     1      2      3      4      9   180.00   0.00000   2 ;     C6-    C7-    C8-    N1
     1      6      5      4      9   180.00   0.00000   2 ;     C6-   C10-    C9-    N1
     1      6      8      9      9   180.00  27.82360   2 ;     C6-   C10-   C11-   C12
     1      6      8     13      9   180.00  27.82360   2 ;     C6-   C10-   C11-   C15
     1     15     19     18      9   180.00   0.00000   2 ;     C6-    C5-    C4-    C3
     1     15     19     20      9   180.00   0.00000   2 ;     C6-    C5-    C4-   C16
     2      1      6      5      9   180.00  27.82360   2 ;     C7-    C6-   C10-    C9
     2      1      6      8      9   180.00  27.82360   2 ;     C7-    C6-   C10-   C11
     2      1     15     19      9   180.00   0.00000   2 ;     C7-    C6-    C5-    C4
     2      3      4      5      9   180.00   0.00000   2 ;     C7-    C8-    N1-    C9
     2      3      4      7      9   180.00   0.00000   2 ;     C7-    C8-    N1-   H11
     3      4      5      6      9   180.00   0.00000   2 ;     C8-    N1-    C9-   C10
     4      5      6      8      9   180.00   0.00000   2 ;     N1-    C9-   C10-   C11
     5      6      8      9      9   180.00  27.82360   2 ;     C9-   C10-   C11-   C12
     5      6      8     13      9   180.00  27.82360   2 ;     C9-   C10-   C11-   C15
     6      1      2      3      9   180.00   0.00000   2 ;    C10-    C6-    C7-    C8
     6      1     15     19      9   180.00   0.00000   2 ;    C10-    C6-    C5-    C4
     6      5      4      7      9   180.00   0.00000   2 ;    C10-    C9-    N1-   H11
     6      8      9     10      9   180.00   0.00000   2 ;    C10-   C11-   C12-   C13
     6      8     13     12      9   180.00   0.00000   2 ;    C10-   C11-   C15-   C14
     8      9     10     11      9   180.00   0.00000   2 ;    C11-   C12-   C13-    N2
     8     13     12     11      9   180.00   0.00000   2 ;    C11-   C15-   C14-    N2
     9      8     13     12      9   180.00   0.00000   2 ;    C12-   C11-   C15-   C14
     9     10     11     12      9   180.00   0.00000   2 ;    C12-   C13-    N2-   C14
     9     10     11     14      9   180.00   0.00000   2 ;    C12-   C13-    N2-   H20
    10      9      8     13      9   180.00   0.00000   2 ;    C13-   C12-   C11-   C15
    10     11     12     13      9   180.00   0.00000   2 ;    C13-    N2-   C14-   C15
    13     12     11     14      9   180.00   0.00000   2 ;    C15-   C14-    N2-   H20
    15      1      2      3      9   180.00   0.00000   2 ;     C5-    C6-    C7-    C8
    15      1      6      5      9   180.00  27.82360   2 ;     C5-    C6-   C10-    C9
    15      1      6      8      9   180.00  27.82360   2 ;     C5-    C6-   C10-   C11
    15     19     18     17      9   180.00   0.00000   2 ;     C5-    C4-    C3-    C2
    15     19     20     21      9   180.00   0.00000   2 ;     C5-    C4-   C16-   C17
    16     17     18     19      9   180.00   0.00000   2 ;     C1-    C2-    C3-    C4
    16     21     20     19      9   180.00   0.00000   2 ;     C1-   C17-   C16-    C4
    17     16     21     20      9   180.00   0.00000   2 ;     C2-    C1-   C17-   C16
    17     18     19     20      9   180.00   0.00000   2 ;     C2-    C3-    C4-   C16
    18     17     16     21      9   180.00   0.00000   2 ;     C3-    C2-    C1-   C17
    18     19     20     21      9   180.00   0.00000   2 ;     C3-    C4-   C16-   C17

[ dihedrals ] ; impropers
; treated as propers in GROMACS to use correct AMBER analytical function
;    i      j      k      l   func   phase     kd      pn
     5      1      6      8      4   180.00   4.60240   2 ;     C9-    C6-   C10-   C11
     6      1     15      2      4   180.00   4.60240   2 ;    C10-    C6-    C5-    C7
     9     13      8      6      4   180.00   4.60240   2 ;    C12-   C15-   C11-   C10
    15     18     19     20      4   180.00   4.60240   2 ;     C5-    C3-    C4-   C16

[ system ]
 decoy_0454

[ molecules ]
; Compound        nmols
 decoy_0454       1     
