%VERSION  VERSION_STAMP = V0001.000  DATE = 09/30/26  13:13:15                  
%FLAG TITLE                                                                     
%FORMAT(20a4)                                                                   
UNL                                                                             
%FLAG POINTERS                                                                  
%FORMAT(10I8)                                                                   
      28       6       4      27       8      37      13      58       0       0
     124       1      27      37      58       9      18       5       6       0
       0       0       0       0       0       0       0       0      28       0
       0
%FLAG ATOM_NAME                                                                 
%FORMAT(20a4)                                                                   
C6  N3  C7  C8  C9  H6  C10 N4  C11 C12 C13 H9  C14 C15 C16 C17 C18 C19 O1  C1  
N1  H1  C2  C3  C4  N2  C5  H4  
%FLAG CHARGE                                                                    
%FORMAT(5E16.8)                                                                 
 -5.74002450E+00 -2.91556800E+00 -5.64891300E-01 -1.54889550E+00  5.46669000E-02
  4.13646210E+00  1.45778400E-01 -3.31645860E+00 -1.98623070E+00  1.49422860E+00
 -4.26401820E+00  5.06579940E+00  2.56934430E+00 -2.55112200E-01 -7.47114300E-01
 -4.92002100E-01 -7.47114300E-01 -2.55112200E-01 -7.38003150E+00  6.25024890E+00
 -2.66045580E+00  4.66490880E+00  3.29823630E+00 -5.99513670E+00  1.74934080E+00
 -4.88357640E+00  8.27292420E+00  5.99513670E+00
%FLAG ATOMIC_NUMBER                                                             
%FORMAT(10I8)                                                                   
       6       7       6       6       6       1       6       7       6       6
       6       1       6       6       6       6       6       6       8       6
       7       1       6       6       6       7       6       1
%FLAG MASS                                                                      
%FORMAT(5E16.8)                                                                 
  1.20100000E+01  1.40100000E+01  1.20100000E+01  1.20100000E+01  1.20100000E+01
  1.00800000E+00  1.20100000E+01  1.40100000E+01  1.20100000E+01  1.20100000E+01
  1.20100000E+01  1.00800000E+00  1.20100000E+01  1.20100000E+01  1.20100000E+01
  1.20100000E+01  1.20100000E+01  1.20100000E+01  1.60000000E+01  1.20100000E+01
  1.40100000E+01  1.00800000E+00  1.20100000E+01  1.20100000E+01  1.20100000E+01
  1.40100000E+01  1.20100000E+01  1.00800000E+00
%FLAG ATOM_TYPE_INDEX                                                           
%FORMAT(10I8)                                                                   
       1       2       3       3       1       4       1       2       3       3
       1       4       1       3       3       3       3       3       5       1
       6       4       1       3       3       2       3       4
%FLAG NUMBER_EXCLUDED_ATOMS                                                     
%FORMAT(10I8)                                                                   
      13       8       5       6      11       1       9       5       4       5
       6       1       5       4       3       2       1       1       4       5
       6       3       5       4       3       2       1       1
%FLAG NONBONDED_PARM_INDEX                                                      
%FORMAT(10I8)                                                                   
       1       2       4       7      11      16       2       3       5       8
      12      17       4       5       6       9      13      18       7       8
       9      10      14      19      11      12      13      14      15      20
      16      17      18      19      20      21
%FLAG RESIDUE_LABEL                                                             
%FORMAT(20a4)                                                                   
UNL 
%FLAG RESIDUE_POINTER                                                           
%FORMAT(10I8)                                                                   
       1
%FLAG BOND_FORCE_CONSTANT                                                       
%FORMAT(5E16.8)                                                                 
  2.93230000E+02  4.36000000E+02  3.97760000E+02  5.11300000E+02  6.99130000E+02
  4.66850000E+02  5.77400000E+02  3.13870000E+02  5.27300000E+02
%FLAG BOND_EQUIL_VALUE                                                          
%FORMAT(5E16.8)                                                                 
  1.42060000E+00  1.33790000E+00  1.33100000E+00  1.01900000E+00  1.20950000E+00
  1.31850000E+00  1.22490000E+00  1.40010000E+00  1.01300000E+00
%FLAG ANGLE_FORCE_CONSTANT                                                      
%FORMAT(5E16.8)                                                                 
  6.62140000E+01  4.95000000E+01  6.88500000E+01  6.54700000E+01  8.98000000E+01
  6.77900000E+01  8.84000000E+01  7.67000000E+01  5.02000000E+01  5.73200000E+01
  1.47580000E+02  7.48600000E+01  7.50990000E+01  4.80000000E+01  7.75500000E+01
  7.18850000E+01  5.87420000E+01  1.14280000E+02
%FLAG ANGLE_EQUIL_VALUE                                                         
%FORMAT(5E16.8)                                                                 
  2.16438373E+00  2.08357495E+00  1.98636007E+00  2.16560546E+00  2.28446244E+00
  2.16927066E+00  2.17380852E+00  3.14159400E+00  2.00328977E+00  3.14159400E+00
  4.38775962E-01  2.02667720E+00  2.05006462E+00  2.05774407E+00  2.15234096E+00
  2.00712950E+00  3.13609621E+00  1.09659084E+00
%FLAG DIHEDRAL_FORCE_CONSTANT                                                   
%FORMAT(5E16.8)                                                                 
  0.00000000E+00  6.65000000E+00  6.50000000E-01  3.00000000E-01  1.10000000E+00
%FLAG DIHEDRAL_PERIODICITY                                                      
%FORMAT(5E16.8)                                                                 
  2.00000000E+00  2.00000000E+00  2.00000000E+00  2.00000000E+00  2.00000000E+00
%FLAG DIHEDRAL_PHASE                                                            
%FORMAT(5E16.8)                                                                 
  3.14159400E+00  3.14159400E+00  3.14159400E+00  3.14159400E+00  3.14159400E+00
%FLAG SCEE_SCALE_FACTOR                                                         
%FORMAT(5E16.8)                                                                 
  1.20000000E+00  1.20000000E+00  1.20000000E+00  1.20000000E+00  0.00000000E+00
%FLAG SCNB_SCALE_FACTOR                                                         
%FORMAT(5E16.8)                                                                 
  2.00000000E+00  2.00000000E+00  2.00000000E+00  2.00000000E+00  0.00000000E+00
%FLAG SOLTY                                                                     
%FORMAT(5E16.8)                                                                 
  0.00000000E+00  0.00000000E+00  0.00000000E+00  0.00000000E+00  0.00000000E+00
  0.00000000E+00
%FLAG LENNARD_JONES_ACOEF                                                       
%FORMAT(5E16.8)                                                                 
  6.96551276E+05  7.10207765E+05  7.23647490E+05  1.18640578E+06  1.20705609E+06
  2.00671338E+06  1.71458823E+03  1.82809059E+03  3.37137075E+03  1.34728399E-01
  5.17507491E+05  5.29641935E+05  8.92208123E+05  9.87857350E+02  3.76435470E+05
  7.01106848E+05  7.16178718E+05  1.20132739E+06  1.52360475E+03  5.15491878E+05
  7.02078680E+05
%FLAG LENNARD_JONES_BCOEF                                                       
%FORMAT(5E16.8)                                                                 
  5.24668528E+02  5.11427129E+02  4.98353106E+02  7.71958727E+02  7.51664026E+02
  1.13185062E+03  1.46824710E+01  1.46352678E+01  2.32108730E+01  7.34107347E-02
  4.98871431E+02  4.87196412E+02  7.38469198E+02  1.22938581E+01  4.69350655E+02
  5.97113873E+02  5.82583725E+02  8.81180204E+02  1.57004457E+01  5.64804067E+02
  6.77820248E+02
%FLAG BONDS_INC_HYDROGEN                                                        
%FORMAT(10I8)                                                                   
       3      15       4      21      33       4      60      63       9      75
      81       4
%FLAG BONDS_WITHOUT_HYDROGEN                                                    
%FORMAT(10I8)                                                                   
       0       3       1       0      12       2       0      57       2       3
       6       3       6       9       5       9      12       6      12      18
       2      18      21       1      18      30       2      21      24       3
      24      27       5      27      30       6      30      36       2      36
      39       6      36      51       6      39      42       5      42      45
       5      45      48       5      48      51       5      54      57       7
      57      60       8      60      66       8      66      69       6      66
      78       6      69      72       5      72      75       3      75      78
       3
%FLAG ANGLES_INC_HYDROGEN                                                       
%FORMAT(10I8)                                                                   
       0       3      15       2       6       3      15       9      18      21
      33       2      24      21      33       9      57      60      63      14
      63      60      66      14      72      75      81       9      78      75
      81       9
%FLAG ANGLES_WITHOUT_HYDROGEN                                                   
%FORMAT(10I8)                                                                   
       0       3       6       1       0      12       9       3       0      12
      18       4       0      57      54       5       0      57      60       6
       3       0      12       7       3       0      57       7       3       6
       9       8       6       9      12      10       9      12      18       3
      12       0      57       4      12      18      21       7      12      18
      30       4      18      21      24       1      18      30      27       3
      18      30      36       4      21      18      30       7      21      24
      27       8      24      27      30      10      27      30      36       3
      30      36      39       3      30      36      51       3      36      39
      42      10      36      51      48      10      39      36      51      11
      39      42      45      12      42      45      48      12      45      48
      51      12      54      57      60      13      57      60      66      15
      60      66      69      16      60      66      78      16      66      69
      72      10      66      78      75      17      69      66      78      11
      69      72      75       8      72      75      78      18
%FLAG DIHEDRALS_INC_HYDROGEN                                                    
%FORMAT(10I8)                                                                   
       0      57      60      63       3       9       6       3      15       1
      12       0       3      15       4      12      18      21      33       4
      57       0       3      15       4      27      24      21      33       1
      30      18      21      33       4      54      57      60      63       3
      63      60      66      69       3      63      60      66      78       3
      66      78      75      81       1      69      72      75      81       1
      57      66     -60     -63       5
%FLAG DIHEDRALS_WITHOUT_HYDROGEN                                                
%FORMAT(10I8)                                                                   
       0       3      -6       9       1       0      12      -9       6       1
       0      12      18      21       2       0      12      18      30       2
       0      57      60      66       3       3       0     -12       9       2
       3       0      12      18       2       3       0      57      54       2
       3       0      57      60       2       3       6      -9      12       1
      12       0      -3       6       4      57       0       3       6       4
       6       9      12      18       1      57       0      12       9       2
       9      12      18      21       2       9      12      18      30       2
      12       0      57      54       2      12       0      57      60       2
      12      18      21      24       4      12      18      30      27       2
      12      18      30      36       2      57       0      12      18       2
      18      21     -24      27       1      18      30     -27      24       1
      18      30      36      39       2      18      30      36      51       2
      21      18     -30      27       2      21      18      30      36       2
      21      24     -27      30       1      24      21     -18      30       4
      24      27      30      36       1      27      30      36      39       2
      27      30      36      51       2      30      36      39      42       1
      30      36      51      48       1      36      39      42      45       1
      36      51     -48      45       1      39      36      51      48       1
      39      42     -45      48       1      42      39      36      51       1
      42      45     -48      51       1      54      57      60      66       3
      57      60      66      69       3      57      60      66      78       3
      60      66      69      72       1      60      66      78      75       1
      66      69     -72      75       1      66      78     -75      72       1
      69      66     -78      75       1      69      72     -75      78       1
      72      69     -66      78       1       3       0     -57     -12       5
       9       0     -12     -18       5      12      30     -18     -21       5
      27      18     -30     -36       5      39      51     -36     -30       5
       0      60     -57     -54       5      69      78     -66     -60       5
%FLAG EXCLUDED_ATOMS_LIST                                                       
%FORMAT(10I8)                                                                   
       2       3       4       5       6       7       8      11      19      20
      21      22      23       3       4       5       6       7      19      20
      21       4       5       6       7      20       5       6       7       8
      11      20       6       7       8       9      10      11      12      13
      19      20      21      20       8       9      10      11      12      13
      14      18      20       9      10      11      12      13      10      11
      12      13      11      12      13      14      18      12      13      14
      15      17      18       0      14      15      16      17      18      15
      16      17      18      16      17      18      17      18      18       0
      20      21      22      23      21      22      23      24      27      22
      23      24      25      26      27      23      24      27      24      25
      26      27      28      25      26      27      28      26      27      28
      27      28      28       0
%FLAG HBOND_ACOEF                                                               
%FORMAT(5E16.8)                                                                 

%FLAG HBOND_BCOEF                                                               
%FORMAT(5E16.8)                                                                 

%FLAG HBCUT                                                                     
%FORMAT(5E16.8)                                                                 

%FLAG AMBER_ATOM_TYPE                                                           
%FORMAT(20a4)                                                                   
c2  n3  c1  c1  c2  hn  c2  n3  c1  c1  c2  hn  c2  c1  c1  c1  c1  c1  o   c2  
n   hn  c2  c1  c1  n3  c1  hn  
%FLAG TREE_CHAIN_CLASSIFICATION                                                 
%FORMAT(20a4)                                                                   
BLA BLA BLA BLA BLA BLA BLA BLA BLA BLA BLA BLA BLA BLA BLA BLA BLA BLA BLA BLA 
BLA BLA BLA BLA BLA BLA BLA BLA 
%FLAG JOIN_ARRAY                                                                
%FORMAT(10I8)                                                                   
       0       0       0       0       0       0       0       0       0       0
       0       0       0       0       0       0       0       0       0       0
       0       0       0       0       0       0       0       0
%FLAG IROTAT                                                                    
%FORMAT(10I8)                                                                   
       0       0       0       0       0       0       0       0       0       0
       0       0       0       0       0       0       0       0       0       0
       0       0       0       0       0       0       0       0
%FLAG RADIUS_SET                                                                
%FORMAT(1a80)                                                                   
modified Bondi radii (mbondi)                                                   
%FLAG RADII                                                                     
%FORMAT(5E16.8)                                                                 
  1.70000000E+00  1.55000000E+00  1.70000000E+00  1.70000000E+00  1.70000000E+00
  1.30000000E+00  1.70000000E+00  1.55000000E+00  1.70000000E+00  1.70000000E+00
  1.70000000E+00  1.30000000E+00  1.70000000E+00  1.70000000E+00  1.70000000E+00
  1.70000000E+00  1.70000000E+00  1.70000000E+00  1.50000000E+00  1.70000000E+00
  1.55000000E+00  1.30000000E+00  1.70000000E+00  1.70000000E+00  1.70000000E+00
  1.55000000E+00  1.70000000E+00  1.30000000E+00
%FLAG SCREEN                                                                    
%FORMAT(5E16.8)                                                                 
  7.20000000E-01  7.90000000E-01  7.20000000E-01  7.20000000E-01  7.20000000E-01
  8.50000000E-01  7.20000000E-01  7.90000000E-01  7.20000000E-01  7.20000000E-01
  7.20000000E-01  8.50000000E-01  7.20000000E-01  7.20000000E-01  7.20000000E-01
  7.20000000E-01  7.20000000E-01  7.20000000E-01  8.50000000E-01  7.20000000E-01
  7.90000000E-01  8.50000000E-01  7.20000000E-01  7.20000000E-01  7.20000000E-01
  7.90000000E-01  7.20000000E-01  8.50000000E-01
%FLAG IPOL                                                                      
%FORMAT(1I8)                                                                    
       0
