%VERSION  VERSION_STAMP = V0001.000  DATE = 09/30/26  13:13:23                  
%FLAG TITLE                                                                     
%FORMAT(20a4)                                                                   
UNL                                                                             
%FLAG POINTERS                                                                  
%FORMAT(10I8)                                                                   
      21       4       2      21       4      27       4      39       0       0
      87       1      21      27      39       5      10       3       4       0
       0       0       0       0       0       0       0       0      21       0
       0
%FLAG ATOM_NAME                                                                 
%FORMAT(20a4)                                                                   
C6  C7  C8  N1  C9  C10 H11 C11 C12 C13 N2  C14 C15 H20 C5  C1  C2  C3  C4  C16 
C17 
%FLAG CHARGE                                                                    
%FORMAT(5E16.8)                                                                 
  3.24356940E+00 -1.76756310E+00 -1.31200560E+00 -2.29600980E+00  4.35512970E+00
 -1.42133940E+00  5.08402170E+00 -2.55112200E-01 -3.92690565E+00  1.55800665E+00
 -2.82445650E+00  1.55800665E+00 -3.92690565E+00  5.06579940E+00  1.64000700E-01
  2.24134290E+00 -3.45312585E+00  7.28892000E-01 -1.09333800E-01  7.28892000E-01
 -3.45312585E+00
%FLAG ATOMIC_NUMBER                                                             
%FORMAT(10I8)                                                                   
       6       6       6       7       6       6       1       6       6       6
       7       6       6       1       6       6       6       6       6       6
       6
%FLAG MASS                                                                      
%FORMAT(5E16.8)                                                                 
  1.20100000E+01  1.20100000E+01  1.20100000E+01  1.40100000E+01  1.20100000E+01
  1.20100000E+01  1.00800000E+00  1.20100000E+01  1.20100000E+01  1.20100000E+01
  1.40100000E+01  1.20100000E+01  1.20100000E+01  1.00800000E+00  1.20100000E+01
  1.20100000E+01  1.20100000E+01  1.20100000E+01  1.20100000E+01  1.20100000E+01
  1.20100000E+01
%FLAG ATOM_TYPE_INDEX                                                           
%FORMAT(10I8)                                                                   
       1       2       2       3       2       1       4       1       2       2
       3       2       2       4       2       2       2       2       1       2
       2
%FLAG NUMBER_EXCLUDED_ATOMS                                                     
%FORMAT(10I8)                                                                   
      12       8       5       4       6       8       1       6       5       4
       3       2       1       1       5       5       4       3       2       1
       1
%FLAG NONBONDED_PARM_INDEX                                                      
%FORMAT(10I8)                                                                   
       1       2       4       7       2       3       5       8       4       5
       6       9       7       8       9      10
%FLAG RESIDUE_LABEL                                                             
%FORMAT(20a4)                                                                   
UNL 
%FLAG RESIDUE_POINTER                                                           
%FORMAT(10I8)                                                                   
       1
%FLAG BOND_FORCE_CONSTANT                                                       
%FORMAT(5E16.8)                                                                 
  4.66850000E+02  4.36000000E+02  6.99130000E+02  3.97760000E+02  5.11300000E+02
%FLAG BOND_EQUIL_VALUE                                                          
%FORMAT(5E16.8)                                                                 
  1.31850000E+00  1.33790000E+00  1.20950000E+00  1.33100000E+00  1.01900000E+00
%FLAG ANGLE_FORCE_CONSTANT                                                      
%FORMAT(5E16.8)                                                                 
  5.73200000E+01  6.88500000E+01  6.54700000E+01  5.52600000E+01  1.47580000E+02
  7.67000000E+01  1.14280000E+02  5.02000000E+01  5.87420000E+01  7.48600000E+01
%FLAG ANGLE_EQUIL_VALUE                                                         
%FORMAT(5E16.8)                                                                 
  3.14159400E+00  1.98636007E+00  2.16560546E+00  3.12990029E+00  4.38775962E-01
  3.14159400E+00  1.09659084E+00  2.00328977E+00  3.13609621E+00  2.02667720E+00
%FLAG DIHEDRAL_FORCE_CONSTANT                                                   
%FORMAT(5E16.8)                                                                 
  0.00000000E+00  6.65000000E+00  1.10000000E+00
%FLAG DIHEDRAL_PERIODICITY                                                      
%FORMAT(5E16.8)                                                                 
  2.00000000E+00  2.00000000E+00  2.00000000E+00
%FLAG DIHEDRAL_PHASE                                                            
%FORMAT(5E16.8)                                                                 
  3.14159400E+00  3.14159400E+00  3.14159400E+00
%FLAG SCEE_SCALE_FACTOR                                                         
%FORMAT(5E16.8)                                                                 
  1.20000000E+00  1.20000000E+00  0.00000000E+00
%FLAG SCNB_SCALE_FACTOR                                                         
%FORMAT(5E16.8)                                                                 
  2.00000000E+00  2.00000000E+00  0.00000000E+00
%FLAG SOLTY                                                                     
%FORMAT(5E16.8)                                                                 
  0.00000000E+00  0.00000000E+00  0.00000000E+00  0.00000000E+00
%FLAG LENNARD_JONES_ACOEF                                                       
%FORMAT(5E16.8)                                                                 
  6.96551276E+05  1.18640578E+06  2.00671338E+06  7.10207765E+05  1.20705609E+06
  7.23647490E+05  1.71458823E+03  3.37137075E+03  1.82809059E+03  1.34728399E-01
%FLAG LENNARD_JONES_BCOEF                                                       
%FORMAT(5E16.8)                                                                 
  5.24668528E+02  7.71958727E+02  1.13185062E+03  5.11427129E+02  7.51664026E+02
  4.98353106E+02  1.46824710E+01  2.32108730E+01  1.46352678E+01  7.34107347E-02
%FLAG BONDS_INC_HYDROGEN                                                        
%FORMAT(10I8)                                                                   
       9      18       5      30      39       5
%FLAG BONDS_WITHOUT_HYDROGEN                                                    
%FORMAT(10I8)                                                                   
       0       3       1       0      15       2       0      42       1       3
       6       3       6       9       4       9      12       4      12      15
       1      15      21       2      21      24       1      21      36       1
      24      27       3      27      30       4      30      33       4      33
      36       3      42      54       1      45      48       3      45      60
       3      48      51       3      51      54       1      54      57       1
      57      60       3
%FLAG ANGLES_INC_HYDROGEN                                                       
%FORMAT(10I8)                                                                   
       6       9      18       8      12       9      18       8      27      30
      39       8      33      30      39       8
%FLAG ANGLES_WITHOUT_HYDROGEN                                                   
%FORMAT(10I8)                                                                   
       0       3       6       1       0      15      12       2       0      15
      21       3       0      42      54       4       3       0      15       2
       3       0      42       5       3       6       9       6       6       9
      12       7       9      12      15       9      12      15      21       2
      15       0      42       2      15      21      24       2      15      21
      36       2      21      24      27       1      21      36      33       1
      24      21      36       5      24      27      30       6      27      30
      33       7      30      33      36       6      42      54      51       5
      42      54      57       5      45      48      51      10      45      60
      57      10      48      45      60      10      48      51      54       1
      51      54      57       5      54      57      60       1
%FLAG DIHEDRALS_INC_HYDROGEN                                                    
%FORMAT(10I8)                                                                   
       3       6       9      18       1      15      12       9      18       1
      24      27      30      39       1      36      33      30      39       1
%FLAG DIHEDRALS_WITHOUT_HYDROGEN                                                
%FORMAT(10I8)                                                                   
       0       3       6       9       1       0      15     -12       9       1
       0      15      21      24       2       0      15      21      36       2
       0      42      54      51       1       0      42      54      57       1
       3       0      15      12       2       3       0      15      21       2
       3       0      42      54       1       3       6      -9      12       1
      15       0       3       6       1      42       0       3       6       1
       6       9     -12      15       1       9      12      15      21       1
      42       0      15      12       2      12      15      21      24       2
      12      15      21      36       2      15       0      42      54       1
      15      21      24      27       1      15      21      36      33       1
      42       0      15      21       2      21      24      27      30       1
      21      36     -33      30       1      24      21      36      33       1
      24      27     -30      33       1      27      24      21      36       1
      27      30     -33      36       1      42      54      51      48       1
      42      54      57      60       1      45      48      51      54       1
      45      60     -57      54       1      48      45      60      57       1
      48      51     -54      57       1      51      48      45      60       1
      51      54     -57      60       1      15       0     -42      -3       3
      12       0     -15     -21       3      24      36     -21     -15       3
      42      51     -54     -57       3
%FLAG EXCLUDED_ATOMS_LIST                                                       
%FORMAT(10I8)                                                                   
       2       3       4       5       6       8       9      13      15      18
      19      20       3       4       5       6       7       8      15      19
       4       5       6       7      15       5       6       7       8       6
       7       8       9      13      15       7       8       9      10      12
      13      15      19       0       9      10      11      12      13      15
      10      11      12      13      14      11      12      13      14      12
      13      14      13      14      14       0      17      18      19      20
      21      17      18      19      20      21      18      19      20      21
      19      20      21      20      21      21       0
%FLAG HBOND_ACOEF                                                               
%FORMAT(5E16.8)                                                                 

%FLAG HBOND_BCOEF                                                               
%FORMAT(5E16.8)                                                                 

%FLAG HBCUT                                                                     
%FORMAT(5E16.8)                                                                 

%FLAG AMBER_ATOM_TYPE                                                           
%FORMAT(20a4)                                                                   
c2  c1  c1  n3  c1  c2  hn  c2  c1  c1  n3  c1  c1  hn  c1  c1  c1  c1  c2  c1  
c1  
%FLAG TREE_CHAIN_CLASSIFICATION                                                 
%FORMAT(20a4)                                                                   
BLA BLA BLA BLA BLA BLA BLA BLA BLA BLA BLA BLA BLA BLA BLA BLA BLA BLA BLA BLA 
BLA 
%FLAG JOIN_ARRAY                                                                
%FORMAT(10I8)                                                                   
       0       0       0       0       0       0       0       0       0       0
       0       0       0       0       0       0       0       0       0       0
       0
%FLAG IROTAT                                                                    
%FORMAT(10I8)                                                                   
       0       0       0       0       0       0       0       0       0       0
       0       0       0       0       0       0       0       0       0       0
       0
%FLAG RADIUS_SET                                                                
%FORMAT(1a80)                                                                   
modified Bondi radii (mbondi)                                                   
%FLAG RADII                                                                     
%FORMAT(5E16.8)                                                                 
  1.70000000E+00  1.70000000E+00  1.70000000E+00  1.55000000E+00  1.70000000E+00
  1.70000000E+00  1.30000000E+00  1.70000000E+00  1.70000000E+00  1.70000000E+00
  1.55000000E+00  1.70000000E+00  1.70000000E+00  1.30000000E+00  1.70000000E+00
  1.70000000E+00  1.70000000E+00  1.70000000E+00  1.70000000E+00  1.70000000E+00
  1.70000000E+00
%FLAG SCREEN                                                                    
%FORMAT(5E16.8)                                                                 
  7.20000000E-01  7.20000000E-01  7.20000000E-01  7.90000000E-01  7.20000000E-01
  7.20000000E-01  8.50000000E-01  7.20000000E-01  7.20000000E-01  7.20000000E-01
  7.90000000E-01  7.20000000E-01  7.20000000E-01  8.50000000E-01  7.20000000E-01
  7.20000000E-01  7.20000000E-01  7.20000000E-01  7.20000000E-01  7.20000000E-01
  7.20000000E-01
%FLAG IPOL                                                                      
%FORMAT(1I8)                                                                    
       0
