%VERSION  VERSION_STAMP = V0001.000  DATE = 09/30/26  13:10:33                  
%FLAG TITLE                                                                     
%FORMAT(20a4)                                                                   
UNL                                                                             
%FLAG POINTERS                                                                  
%FORMAT(10I8)                                                                   
      26       7       1      28       2      39       5      62       0       0
     115       1      28      39      62      11      19       6       7       0
       0       0       0       0       0       0       0       0      26       0
       0
%FLAG ATOM_NAME                                                                 
%FORMAT(20a4)                                                                   
C5  N3  C12 C13 C14 C15 C16 C17 C18 C19 O2  O1  C1  N1  C2  N2  C3  C4  S1  H1  
C6  C7  C8  C9  C10 C11 
%FLAG CHARGE                                                                    
%FORMAT(5E16.8)                                                                 
 -1.09333800E-01 -2.69690040E+00  3.64446000E-02  1.73111850E+00 -1.38489480E+00
  1.03867110E+00  2.91556800E-01 -3.64446000E-01 -1.64000700E+00  7.25247540E+00
 -3.13423560E+00 -5.06579940E+00  6.03158130E+00 -5.15691090E+00  1.07511570E+00
 -3.28001400E-01 -1.87689690E+00 -4.92002100E+00  6.23202660E+00  5.15691090E+00
 -1.82223000E-01 -8.29114650E-01 -2.46001050E-01  1.82223000E-01 -2.46001050E-01
 -8.29114650E-01
%FLAG ATOMIC_NUMBER                                                             
%FORMAT(10I8)                                                                   
       6       7       6       6       6       6       6       6       6       6
       8       8       6       7       6       7       6       6      16       1
       6       6       6       6       6       6
%FLAG MASS                                                                      
%FORMAT(5E16.8)                                                                 
  1.20100000E+01  1.40100000E+01  1.20100000E+01  1.20100000E+01  1.20100000E+01
  1.20100000E+01  1.20100000E+01  1.20100000E+01  1.20100000E+01  1.20100000E+01
  1.60000000E+01  1.60000000E+01  1.20100000E+01  1.40100000E+01  1.20100000E+01
  1.40100000E+01  1.20100000E+01  1.20100000E+01  3.20600000E+01  1.00800000E+00
  1.20100000E+01  1.20100000E+01  1.20100000E+01  1.20100000E+01  1.20100000E+01
  1.20100000E+01
%FLAG ATOM_TYPE_INDEX                                                           
%FORMAT(10I8)                                                                   
       1       2       3       1       3       3       3       3       1       1
       4       4       1       2       1       5       3       3       6       7
       1       3       3       3       3       3
%FLAG NUMBER_EXCLUDED_ATOMS                                                     
%FORMAT(10I8)                                                                   
      16      13       9       7       5       3       3       3       2       3
       1       5       8       7       5       4       2       1       1       1
       5       4       3       2       1       1
%FLAG NONBONDED_PARM_INDEX                                                      
%FORMAT(10I8)                                                                   
       1       2       4       7      11      16      22       2       3       5
       8      12      17      23       4       5       6       9      13      18
      24       7       8       9      10      14      19      25      11      12
      13      14      15      20      26      16      17      18      19      20
      21      27      22      23      24      25      26      27      28
%FLAG RESIDUE_LABEL                                                             
%FORMAT(20a4)                                                                   
UNL 
%FLAG RESIDUE_POINTER                                                           
%FORMAT(10I8)                                                                   
       1
%FLAG BOND_FORCE_CONSTANT                                                       
%FORMAT(5E16.8)                                                                 
  3.13870000E+02  4.36000000E+02  4.28900000E+02  4.66850000E+02  6.99130000E+02
  5.77400000E+02  5.27300000E+02  4.75990000E+02  2.13760000E+02  6.58450000E+02
  2.74010000E+02
%FLAG BOND_EQUIL_VALUE                                                          
%FORMAT(5E16.8)                                                                 
  1.40010000E+00  1.33790000E+00  1.33000000E+00  1.31850000E+00  1.20950000E+00
  1.22490000E+00  1.01300000E+00  1.28090000E+00  1.78420000E+00  1.19510000E+00
  1.69200000E+00
%FLAG ANGLE_FORCE_CONSTANT                                                      
%FORMAT(5E16.8)                                                                 
  6.62000000E+01  7.75500000E+01  8.98000000E+01  6.77900000E+01  6.88500000E+01
  5.91500000E+01  7.50990000E+01  1.47580000E+02  5.73200000E+01  6.54700000E+01
  7.48600000E+01  4.80000000E+01  7.40400000E+01  6.95700000E+01  7.29190000E+01
  6.47550000E+01  6.71600000E+01  8.21000000E+01  5.57400000E+01
%FLAG ANGLE_EQUIL_VALUE                                                         
%FORMAT(5E16.8)                                                                 
  2.07484830E+00  2.15234096E+00  2.28446244E+00  2.16927066E+00  1.98636007E+00
  3.13609621E+00  2.05006462E+00  4.38775962E-01  3.14159400E+00  2.16560546E+00
  2.02667720E+00  2.05774407E+00  2.12441568E+00  1.94220322E+00  2.08811281E+00
  1.72665497E+00  2.14064725E+00  3.14159400E+00  3.06916280E+00
%FLAG DIHEDRAL_FORCE_CONSTANT                                                   
%FORMAT(5E16.8)                                                                 
  0.00000000E+00  6.50000000E-01  6.65000000E+00  4.15000000E+00  1.10000000E+00
  1.10000000E+00
%FLAG DIHEDRAL_PERIODICITY                                                      
%FORMAT(5E16.8)                                                                 
  2.00000000E+00  2.00000000E+00  2.00000000E+00  2.00000000E+00  2.00000000E+00
  2.00000000E+00
%FLAG DIHEDRAL_PHASE                                                            
%FORMAT(5E16.8)                                                                 
  3.14159400E+00  3.14159400E+00  3.14159400E+00  3.14159400E+00  3.14159400E+00
  3.14159400E+00
%FLAG SCEE_SCALE_FACTOR                                                         
%FORMAT(5E16.8)                                                                 
  1.20000000E+00  1.20000000E+00  1.20000000E+00  1.20000000E+00  1.20000000E+00
  0.00000000E+00
%FLAG SCNB_SCALE_FACTOR                                                         
%FORMAT(5E16.8)                                                                 
  2.00000000E+00  2.00000000E+00  2.00000000E+00  2.00000000E+00  2.00000000E+00
  0.00000000E+00
%FLAG SOLTY                                                                     
%FORMAT(5E16.8)                                                                 
  0.00000000E+00  0.00000000E+00  0.00000000E+00  0.00000000E+00  0.00000000E+00
  0.00000000E+00  0.00000000E+00
%FLAG LENNARD_JONES_ACOEF                                                       
%FORMAT(5E16.8)                                                                 
  6.96551276E+05  7.01106848E+05  7.02078680E+05  1.18640578E+06  1.20132739E+06
  2.00671338E+06  5.17507491E+05  5.15491878E+05  8.92208123E+05  3.76435470E+05
  7.69642101E+05  7.76656876E+05  1.30700124E+06  5.74782316E+05  8.49322032E+05
  1.73376823E+06  1.75889445E+06  2.92607619E+06  1.30884564E+06  1.90820499E+06
  4.26366419E+06  1.71458823E+03  1.52360475E+03  3.37137075E+03  9.87857350E+02
  2.01475241E+03  5.15374979E+03  1.34728399E-01
%FLAG LENNARD_JONES_BCOEF                                                       
%FORMAT(5E16.8)                                                                 
  5.24668528E+02  5.97113873E+02  6.77820248E+02  7.71958727E+02  8.81180204E+02
  1.13185062E+03  4.98871431E+02  5.64804067E+02  7.38469198E+02  4.69350655E+02
  5.44830041E+02  6.20851625E+02  8.00430491E+02  5.19385932E+02  5.65406768E+02
  1.07629402E+03  1.22973599E+03  1.57633023E+03  1.03157656E+03  1.11546536E+03
  2.19459223E+03  1.46824710E+01  1.57004457E+01  2.32108730E+01  1.22938581E+01
  1.57231024E+01  3.30984635E+01  7.34107347E-02
%FLAG BONDS_INC_HYDROGEN                                                        
%FORMAT(10I8)                                                                   
      39      57       7
%FLAG BONDS_WITHOUT_HYDROGEN                                                    
%FORMAT(10I8)                                                                   
       0       3       1       0      36       2       0      60       2       3
       6       3       3      27       1       6       9       4       9      12
       4       9      24       2      12      15       5      15      18       5
      18      21       5      21      24       4      24      27       2      27
      30       6      33      36       6      36      39       1      39      42
       1      42      45       8      42      54       9      45      48      10
      48      51       5      51      54      11      60      63       4      60
      75       4      63      66       5      66      69       5      69      72
       5      72      75       5
%FLAG ANGLES_INC_HYDROGEN                                                       
%FORMAT(10I8)                                                                   
      36      39      57      12      42      39      57      12
%FLAG ANGLES_WITHOUT_HYDROGEN                                                   
%FORMAT(10I8)                                                                   
       0       3       6       1       0       3      27       2       0      36
      33       3       0      36      39       4       0      60      63       5
       0      60      75       5       3       0      36       4       3       0
      60       4       3       6       9       6       3      27      24       4
       3      27      30       7       6       3      27       1       6       9
      12       8       6       9      24       5       9      12      15       9
       9      24      21       5       9      24      27      10      12       9
      24       5      12      15      18      11      15      18      21      11
      18      21      24       9      21      24      27       5      24      27
      30       3      33      36      39       7      36       0      60      10
      36      39      42       2      39      42      45      13      39      42
      54      14      42      45      48      15      42      54      51      16
      45      42      54      17      45      48      51      18      48      51
      54      19      60      63      66       9      60      75      72       9
      63      60      75       8      63      66      69      11      66      69
      72      11      69      72      75      11
%FLAG DIHEDRALS_INC_HYDROGEN                                                    
%FORMAT(10I8)                                                                   
       0      36      39      57       2      33      36      39      57       2
      45      42      39      57       2      54      42      39      57       2
      36      42     -39     -57       6
%FLAG DIHEDRALS_WITHOUT_HYDROGEN                                                
%FORMAT(10I8)                                                                   
       0       3       6       9       1       0       3      27      24       2
       0       3      27      30       2       0      36      39      42       2
       0      60      63      66       1       0      60      75      72       1
       3       0      36      33       3       3       0      36      39       3
       3       0      60      63       3       3       0      60      75       3
       3       6       9      12       1       3       6      -9      24       1
       3      27     -24       9       3       3      27      24      21       3
      36       0       3       6       2      60       0       3       6       2
       6       3     -27      24       2       6       3      27      30       2
       6       9      12      15       1       6       9      24      21       3
       6       9     -24      27       3       9       6      -3      27       1
       9      12      15      18       1       9      24     -21      18       1
       9      24      27      30       3      12       9      24      21       3
      12       9      24      27       3      12      15     -18      21       1
      15      12       9      24       1      15      18     -21      24       1
      18      21      24      27       1      21      24      27      30       3
      36       0       3      27       2      60       0       3      27       2
      60       0      36      33       3      33      36      39      42       2
      36       0      60      63       3      36       0      60      75       3
      36      39      42      45       2      36      39      42      54       2
      60       0      36      39       3      39      42      45      48       4
      39      42      54      51       5      42      45     -48      51       1
      42      54     -51      48       1      45      42     -54      51       5
      45      48     -51      54       1      48      45     -42      54       4
      60      63      66      69       1      60      75     -72      69       1
      63      60      75      72       1      63      66     -69      72       1
      66      63      60      75       1      66      69     -72      75       1
       3       0     -60     -36       6       6       0      -3     -27       6
       6      12      -9     -24       6      21       9     -24     -27       6
      24       3     -27     -30       6       0      39     -36     -33       6
      39      45     -42     -54       6       0      60     -75     -63       6
%FLAG EXCLUDED_ATOMS_LIST                                                       
%FORMAT(10I8)                                                                   
       2       3       4       9      10      11      12      13      14      15
      20      21      22      23      25      26       3       4       5       8
       9      10      11      12      13      14      21      22      26       4
       5       6       8       9      10      11      13      21       5       6
       7       8       9      10      11       6       7       8       9      10
       7       8       9       8       9      10       9      10      11      10
      11      11      13      21       0      13      14      15      20      21
      14      15      16      19      20      21      22      26      15      16
      17      18      19      20      21      16      17      18      19      20
      17      18      19      20      18      19      19      20       0      22
      23      24      25      26      23      24      25      26      24      25
      26      25      26      26       0
%FLAG HBOND_ACOEF                                                               
%FORMAT(5E16.8)                                                                 

%FLAG HBOND_BCOEF                                                               
%FORMAT(5E16.8)                                                                 

%FLAG HBCUT                                                                     
%FORMAT(5E16.8)                                                                 

%FLAG AMBER_ATOM_TYPE                                                           
%FORMAT(20a4)                                                                   
c2  n   c1  c2  c1  c1  c1  c1  c2  c2  o   o   c2  n   c2  n2  c1  c1  ss  hn  
c2  c1  c1  c1  c1  c1  
%FLAG TREE_CHAIN_CLASSIFICATION                                                 
%FORMAT(20a4)                                                                   
BLA BLA BLA BLA BLA BLA BLA BLA BLA BLA BLA BLA BLA BLA BLA BLA BLA BLA BLA BLA 
BLA BLA BLA BLA BLA BLA 
%FLAG JOIN_ARRAY                                                                
%FORMAT(10I8)                                                                   
       0       0       0       0       0       0       0       0       0       0
       0       0       0       0       0       0       0       0       0       0
       0       0       0       0       0       0
%FLAG IROTAT                                                                    
%FORMAT(10I8)                                                                   
       0       0       0       0       0       0       0       0       0       0
       0       0       0       0       0       0       0       0       0       0
       0       0       0       0       0       0
%FLAG RADIUS_SET                                                                
%FORMAT(1a80)                                                                   
modified Bondi radii (mbondi)                                                   
%FLAG RADII                                                                     
%FORMAT(5E16.8)                                                                 
  1.70000000E+00  1.55000000E+00  1.70000000E+00  1.70000000E+00  1.70000000E+00
  1.70000000E+00  1.70000000E+00  1.70000000E+00  1.70000000E+00  1.70000000E+00
  1.50000000E+00  1.50000000E+00  1.70000000E+00  1.55000000E+00  1.70000000E+00
  1.55000000E+00  1.70000000E+00  1.70000000E+00  1.80000000E+00  1.30000000E+00
  1.70000000E+00  1.70000000E+00  1.70000000E+00  1.70000000E+00  1.70000000E+00
  1.70000000E+00
%FLAG SCREEN                                                                    
%FORMAT(5E16.8)                                                                 
  7.20000000E-01  7.90000000E-01  7.20000000E-01  7.20000000E-01  7.20000000E-01
  7.20000000E-01  7.20000000E-01  7.20000000E-01  7.20000000E-01  7.20000000E-01
  8.50000000E-01  8.50000000E-01  7.20000000E-01  7.90000000E-01  7.20000000E-01
  7.90000000E-01  7.20000000E-01  7.20000000E-01  9.60000000E-01  8.50000000E-01
  7.20000000E-01  7.20000000E-01  7.20000000E-01  7.20000000E-01  7.20000000E-01
  7.20000000E-01
%FLAG IPOL                                                                      
%FORMAT(1I8)                                                                    
       0
