%VERSION  VERSION_STAMP = V0001.000  DATE = 09/30/26  13:48:18                  
%FLAG TITLE                                                                     
%FORMAT(20a4)                                                                   
UNL                                                                             
%FLAG POINTERS                                                                  
%FORMAT(10I8)                                                                   
      40      11      14      29      30      41      61      64       0       0
     212       1      29      41      64      15      31       9      12       0
       0       0       0       0       0       0       0       0      40       0
       0
%FLAG ATOM_NAME                                                                 
%FORMAT(20a4)                                                                   
O1  C1  N1  C2  N2  C3  C4  S1  C5  C6  C7  C8  C9  F1  C10 C11 N3  C12 C13 C14 
C15 C16 C17 C18 C19 O2  H1  H2  H3  H4  H5  H6  H7  H8  H9  H10 H11 H12 H13 H14 
%FLAG CHARGE                                                                    
%FORMAT(5E16.8)                                                                 
 -6.52358340E+00  5.26624470E+00 -4.97468790E+00 -3.09779100E+00 -2.80623420E+00
 -2.05911990E+00 -9.49381830E+00  1.07511570E+01  1.69467390E+00 -2.44178820E+00
 -1.57622895E+00 -3.06134640E+00  1.91334150E+00 -1.84045230E+00 -3.06134640E+00
 -1.57622895E+00 -6.41424960E+00  2.18667600E-01 -1.36667250E+00 -2.13200910E+00
 -1.80400770E+00 -2.55112200E+00 -8.92892700E-01 -2.47823280E+00  6.76047330E+00
 -6.46891650E+00  5.15691090E+00  3.24356940E+00  3.26179170E+00  2.46001050E+00
  2.81534535E+00  2.81534535E+00  2.81534535E+00  2.81534535E+00  2.00445300E+00
  2.00445300E+00  2.60578890E+00  2.53289970E+00  2.58756660E+00  2.89734570E+00
%FLAG ATOMIC_NUMBER                                                             
%FORMAT(10I8)                                                                   
       8       6       7       6       7       6       6      16       6       6
       6       6       6       9       6       6       7       6       6       6
       6       6       6       6       6       8       1       1       1       1
       1       1       1       1       1       1       1       1       1       1
%FLAG MASS                                                                      
%FORMAT(5E16.8)                                                                 
  1.60000000E+01  1.20100000E+01  1.40100000E+01  1.20100000E+01  1.40100000E+01
  1.20100000E+01  1.20100000E+01  3.20600000E+01  1.20100000E+01  1.20100000E+01
  1.20100000E+01  1.20100000E+01  1.20100000E+01  1.90000000E+01  1.20100000E+01
  1.20100000E+01  1.40100000E+01  1.20100000E+01  1.20100000E+01  1.20100000E+01
  1.20100000E+01  1.20100000E+01  1.20100000E+01  1.20100000E+01  1.20100000E+01
  1.60000000E+01  1.00800000E+00  1.00800000E+00  1.00800000E+00  1.00800000E+00
  1.00800000E+00  1.00800000E+00  1.00800000E+00  1.00800000E+00  1.00800000E+00
  1.00800000E+00  1.00800000E+00  1.00800000E+00  1.00800000E+00  1.00800000E+00
%FLAG ATOM_TYPE_INDEX                                                           
%FORMAT(10I8)                                                                   
       1       2       3       2       4       2       2       5       6       2
       2       2       2       7       2       2       3       6       2       2
       2       2       2       2       2       1       8       9       9      10
      11      11      11      11      10      10      11      11      11      11
%FLAG NUMBER_EXCLUDED_ATOMS                                                     
%FORMAT(10I8)                                                                   
       8      13      10       8       6       4       3       3      17      13
      10       7       7       4       4       5      10      11      12      10
       7       7       6       7       5       1       1       1       1       1
       1       1       1       1       1       1       1       1       1       1
%FLAG NONBONDED_PARM_INDEX                                                      
%FORMAT(10I8)                                                                   
       1       2       4       7      11      16      22      29      37      46
      56       2       3       5       8      12      17      23      30      38
      47      57       4       5       6       9      13      18      24      31
      39      48      58       7       8       9      10      14      19      25
      32      40      49      59      11      12      13      14      15      20
      26      33      41      50      60      16      17      18      19      20
      21      27      34      42      51      61      22      23      24      25
      26      27      28      35      43      52      62      29      30      31
      32      33      34      35      36      44      53      63      37      38
      39      40      41      42      43      44      45      54      64      46
      47      48      49      50      51      52      53      54      55      65
      56      57      58      59      60      61      62      63      64      65
      66
%FLAG RESIDUE_LABEL                                                             
%FORMAT(20a4)                                                                   
UNL 
%FLAG RESIDUE_POINTER                                                           
%FORMAT(10I8)                                                                   
       1
%FLAG BOND_FORCE_CONSTANT                                                       
%FORMAT(5E16.8)                                                                 
  5.77400000E+02  3.13870000E+02  2.48400000E+02  5.27300000E+02  4.75990000E+02
  2.13760000E+02  4.36000000E+02  3.59910000E+02  2.43910000E+02  2.54460000E+02
  3.44220000E+02  3.54250000E+02  3.60690000E+02  3.35440000E+02  3.85050000E+02
%FLAG BOND_EQUIL_VALUE                                                          
%FORMAT(5E16.8)                                                                 
  1.22490000E+00  1.40010000E+00  1.50880000E+00  1.01300000E+00  1.28090000E+00
  1.78420000E+00  1.33790000E+00  1.08650000E+00  1.51470000E+00  1.46430000E+00
  1.09690000E+00  1.39860000E+00  1.08600000E+00  1.35020000E+00  1.37390000E+00
%FLAG ANGLE_FORCE_CONSTANT                                                      
%FORMAT(5E16.8)                                                                 
  7.50990000E+01  7.70800000E+01  7.75500000E+01  4.80000000E+01  6.07000000E+01
  6.56400000E+01  4.38900000E+01  6.44100000E+01  7.40400000E+01  6.95700000E+01
  7.32000000E+01  9.55800000E+01  6.71600000E+01  8.98000000E+01  5.07000000E+01
  6.30400000E+01  4.59500000E+01  4.20400000E+01  6.07400000E+01  7.62100000E+01
  7.60400000E+01  6.52300000E+01  4.38100000E+01  6.36700000E+01  4.49000000E+01
  8.05500000E+01  4.80900000E+01  6.87000000E+01  6.40100000E+01  7.28000000E+01
  3.56400000E+01
%FLAG ANGLE_EQUIL_VALUE                                                         
%FORMAT(5E16.8)                                                                 
  2.05006462E+00  2.14431244E+00  2.15234096E+00  2.05774407E+00  1.97309557E+00
  1.96436892E+00  1.91916487E+00  2.12092502E+00  2.12441568E+00  1.94220322E+00
  2.06263099E+00  1.74009401E+00  2.14064725E+00  2.19929033E+00  2.11272196E+00
  2.13261873E+00  2.14186898E+00  2.02929519E+00  2.10888224E+00  2.03767278E+00
  2.13523672E+00  1.98112408E+00  1.91288168E+00  2.09474507E+00  2.09230160E+00
  2.07624457E+00  1.89822091E+00  2.15844961E+00  2.10905677E+00  2.15705335E+00
  1.89455572E+00
%FLAG DIHEDRAL_FORCE_CONSTANT                                                   
%FORMAT(5E16.8)                                                                 
  6.50000000E-01  0.00000000E+00  0.00000000E+00  4.15000000E+00  1.10000000E+00
  6.65000000E+00  3.62500000E+00  7.00000000E-01  1.10000000E+00
%FLAG DIHEDRAL_PERIODICITY                                                      
%FORMAT(5E16.8)                                                                 
  2.00000000E+00  2.00000000E+00  2.00000000E+00  2.00000000E+00  2.00000000E+00
  2.00000000E+00  2.00000000E+00  2.00000000E+00  2.00000000E+00
%FLAG DIHEDRAL_PHASE                                                            
%FORMAT(5E16.8)                                                                 
  3.14159400E+00  0.00000000E+00  3.14159400E+00  3.14159400E+00  3.14159400E+00
  3.14159400E+00  3.14159400E+00  3.14159400E+00  3.14159400E+00
%FLAG SCEE_SCALE_FACTOR                                                         
%FORMAT(5E16.8)                                                                 
  1.20000000E+00  1.20000000E+00  1.20000000E+00  1.20000000E+00  1.20000000E+00
  1.20000000E+00  1.20000000E+00  1.20000000E+00  0.00000000E+00
%FLAG SCNB_SCALE_FACTOR                                                         
%FORMAT(5E16.8)                                                                 
  2.00000000E+00  2.00000000E+00  2.00000000E+00  2.00000000E+00  2.00000000E+00
  2.00000000E+00  2.00000000E+00  2.00000000E+00  0.00000000E+00
%FLAG SOLTY                                                                     
%FORMAT(5E16.8)                                                                 
  0.00000000E+00  0.00000000E+00  0.00000000E+00  0.00000000E+00  0.00000000E+00
  0.00000000E+00  0.00000000E+00  0.00000000E+00  0.00000000E+00  0.00000000E+00
  0.00000000E+00  0.00000000E+00
%FLAG LENNARD_JONES_ACOEF                                                       
%FORMAT(5E16.8)                                                                 
  3.76435470E+05  5.17507491E+05  6.96551276E+05  5.15491878E+05  7.01106848E+05
  7.02078680E+05  5.74782316E+05  7.69642101E+05  7.76656876E+05  8.49322032E+05
  1.30884564E+06  1.73376823E+06  1.75889445E+06  1.90820499E+06  4.26366419E+06
  6.30925504E+05  8.43969952E+05  8.52084164E+05  9.31115275E+05  2.09089895E+06
  1.02073671E+06  2.76207447E+05  3.80155513E+05  3.78460396E+05  4.22347898E+05
  9.62298009E+05  4.63627012E+05  2.02652992E+05  9.87857350E+02  1.71458823E+03
  1.52360475E+03  2.01475241E+03  5.15374979E+03  2.23577481E+03  7.15600927E+02
  1.34728399E-01  4.36069364E+04  6.27751680E+04  6.11299385E+04  7.05112106E+04
  1.64354276E+05  7.75673747E+04  3.19160477E+04  6.76796831E+01  4.56536476E+03
  3.86646725E+04  5.63013422E+04  5.45183252E+04  6.34160397E+04  1.48672098E+05
  6.97998263E+04  2.82810778E+04  5.24570081E+01  3.94664935E+03  3.39005767E+03
  5.27277400E+04  7.52549148E+04  7.35931098E+04  8.43518904E+04  1.95762765E+05
  9.27554496E+04  3.86097375E+04  9.04434904E+01  5.62610481E+03  4.88692384E+03
  6.90855956E+03
%FLAG LENNARD_JONES_BCOEF                                                       
%FORMAT(5E16.8)                                                                 
  4.69350655E+02  4.98871431E+02  5.24668528E+02  5.64804067E+02  5.97113873E+02
  6.77820248E+02  5.19385932E+02  5.44830041E+02  6.20851625E+02  5.65406768E+02
  1.03157656E+03  1.07629402E+03  1.22973599E+03  1.11546536E+03  2.19459223E+03
  5.62969425E+02  5.90251928E+02  6.72777963E+02  6.12468585E+02  1.20800124E+03
  6.63431737E+02  3.49131956E+02  3.71304925E+02  4.20258854E+02  3.86628088E+02
  7.68124812E+02  4.19082844E+02  2.59697739E+02  1.22938581E+01  1.46824710E+01
  1.57004457E+01  1.57231024E+01  3.30984635E+01  1.71355763E+01  9.08649254E+00
  7.34107347E-02  9.20079458E+01  1.00073628E+02  1.12023534E+02  1.04776275E+02
  2.10544132E+02  1.13692208E+02  6.83552458E+01  1.85338491E+00  1.71467049E+01
  9.23664132E+01  1.01040256E+02  1.12788003E+02  1.05935811E+02  2.13489607E+02
  1.14981426E+02  6.86000827E+01  1.73959275E+00  1.69967767E+01  1.67944276E+01
  1.01173582E+02  1.09570372E+02  1.22913863E+02  1.14599119E+02  2.29782888E+02
  1.24325688E+02  7.51823196E+01  2.14252117E+00  1.90347353E+01  1.89134207E+01
  2.10929191E+01
%FLAG BONDS_INC_HYDROGEN                                                        
%FORMAT(10I8)                                                                   
       6      78       4      15      81       8      18      84       8      24
      87      11      30      90      13      33      93      13      42      96
      13      45      99      13      51     102      11      51     105      11
      57     108      13      60     111      13      63     114      13      66
     117      13
%FLAG BONDS_WITHOUT_HYDROGEN                                                    
%FORMAT(10I8)                                                                   
       0       3       1       3       6       2       3      24       3       6
       9       2       9      12       5       9      21       6      12      15
       5      15      18       7      18      21       6      24      27       9
      24      48      10      27      30      12      27      45      12      30
      33      12      33      36      12      36      39      14      36      42
      12      42      45      12      48      51      10      48      72       2
      51      54       9      54      57      12      54      69      12      57
      60      12      60      63      12      63      66      12      66      69
      12      69      72      15      72      75       1
%FLAG ANGLES_INC_HYDROGEN                                                       
%FORMAT(10I8)                                                                   
       3       6      78       4       3      24      87       7       9       6
      78       4      12      15      81      15      15      18      84      17
      18      15      81      17      21      18      84      18      27      24
      87      23      27      30      90      25      27      45      99      25
      30      33      93      25      33      30      90      25      36      33
      93      25      36      42      96      25      42      45      99      25
      45      42      96      25      48      24      87      27      48      51
     102      27      48      51     105      27      54      51     102      23
      54      51     105      23      54      57     108      25      57      60
     111      25      60      57     108      25      60      63     114      25
      63      60     111      25      63      66     117      25      66      63
     114      25      69      66     117      25     102      51     105      31
%FLAG ANGLES_WITHOUT_HYDROGEN                                                   
%FORMAT(10I8)                                                                   
       0       3       6       1       0       3      24       2       3       6
       9       3       3      24      27       5       3      24      48       6
       6       3      24       8       6       9      12       9       6       9
      21      10       9      12      15      11       9      21      18      12
      12       9      21      13      12      15      18      14      15      18
      21      16      24      27      30      19      24      27      45      19
      24      48      51      20      24      48      72      21      27      24
      48      22      27      30      33      24      27      45      42      24
      30      27      45      24      30      33      36      24      33      36
      39      26      33      36      42      24      36      42      45      24
      39      36      42      26      48      51      54      22      48      72
      69      28      48      72      75       1      51      48      72      21
      51      54      57      19      51      54      69      19      54      57
      60      24      54      69      66      24      54      69      72      29
      57      54      69      24      57      60      63      24      60      63
      66      24      63      66      69      24      66      69      72      29
      69      72      75      30
%FLAG DIHEDRALS_INC_HYDROGEN                                                    
%FORMAT(10I8)                                                                   
       0       3       6      78       1       0       3      24      87       2
       6       3      24      87       2       9      12      15      81       4
       9      21      18      84       5      12       9       6      78       1
      12      15      18      84       6      21       9       6      78       1
      21      18      15      81       6      24       3       6      78       1
      24      27      30      90       7      24      27      45      99       7
      24      48      51     102       2      24      48      51     105       2
      27      30      33      93       7      27      45      42      96       7
      30      27      24      87       2      30      27      45      99       7
      33      36      42      96       7      36      33      30      90       7
      36      42      45      99       7      39      36      33      93       7
      39      36      42      96       7      42      36      33      93       7
      45      27      24      87       2      45      27      30      90       7
      51      48      24      87       2      51      54      57     108       7
      54      57      60     111       7      54      69      66     117       7
      57      54      51     102       2      57      54      51     105       2
      57      60      63     114       7      60      63      66     117       7
      63      60      57     108       7      66      63      60     111       7
      69      54      51     102       2      69      54      51     105       2
      69      54      57     108       7      69      66      63     114       7
      72      48      24      87       2      72      48      51     102       2
      72      48      51     105       2      72      69      66     117       7
      81      15      18      84       6      90      30      33      93       7
      96      42      45      99       7     108      57      60     111       7
     111      60      63     114       7     114      63      66     117       7
       3       9      -6     -78       9      18      81     -15     -12       9
      15      84     -18     -21       9      27      33     -30     -90       9
      30      36     -33     -93       9      36      45     -42     -96       9
      27      42     -45     -99       9      54      60     -57    -108       9
      57      63     -60    -111       9      60      66     -63    -114       9
      63      69     -66    -117       9
%FLAG DIHEDRALS_WITHOUT_HYDROGEN                                                
%FORMAT(10I8)                                                                   
       0       3       6       9       1       0       3      24      27       2
       0       3      24      48       2       3       6       9      12       1
       3       6       9      21       1       3      24      27      30       3
       3      24      27      45       3       3      24      48      51       2
       3      24      48      72       2       6       3      24      27       2
       6       3      24      48       2       6       9      12      15       4
       6       9      21      18       5       9       6       3      24       1
       9      12     -15      18       4       9      21     -18      15       5
      12       9     -21      18       5      12      15     -18      21       6
      15      12      -9      21       4      24      27      30      33       7
      24      27      45      42       7      24      48      51      54       2
      24      48      72      69       1      24      48      72      75       1
      27      24      48      51       2      27      24      48      72       2
      27      30      33      36       7      27      45     -42      36       7
      30      27      24      48       2      30      27      45      42       7
      30      33      36      39       7      30      33     -36      42       7
      33      30      27      45       7      33      36     -42      45       7
      39      36      42      45       7      45      27      24      48       2
      48      51      54      57       2      48      51     -54      69       2
      48      72     -69      54       8      48      72      69      66       8
      51      48     -72      69       1      51      48      72      75       1
      51      54      57      60       7      51      54      69      66       7
      51      54     -69      72       7      54      51     -48      72       2
      54      57      60      63       7      54      69     -66      63       7
      54      69      72      75       8      57      54      69      66       7
      57      54      69      72       7      57      60     -63      66       7
      60      57      54      69       7      60      63     -66      69       7
      63      66      69      72       7      66      69      72      75       8
       0       3      -6     -24       9       6      12      -9     -21       9
      30      45     -27     -24       9      33      42     -36     -39       9
      72      24     -48     -51       9      51      57     -54     -69       9
      54      66     -69     -72       9      69      48     -72     -75       9
%FLAG EXCLUDED_ATOMS_LIST                                                       
%FORMAT(10I8)                                                                   
       2       3       4       9      10      17      27      30       3       4
       5       8       9      10      11      16      17      18      25      27
      30       4       5       6       7       8       9      10      17      27
      30       5       6       7       8       9      27      28      29       6
       7       8      27      28      29       7       8      28      29       8
      28      29      27      28      29      10      11      12      15      16
      17      18      19      24      25      26      27      30      31      34
      35      36      11      12      13      15      16      17      18      25
      30      31      32      33      34      12      13      14      15      16
      17      30      31      32      34      13      14      15      16      31
      32      33      14      15      16      31      32      33      34      15
      16      32      33      16      32      33      34      17      30      31
      33      34      18      19      20      23      24      25      26      30
      35      36      19      20      21      23      24      25      26      30
      35      36      37      20      21      22      23      24      25      26
      35      36      37      38      40      21      22      23      24      25
      35      36      37      38      39      22      23      24      37      38
      39      40      23      24      25      37      38      39      40      24
      25      26      38      39      40      25      26      35      36      37
      39      40      26      30      35      36      40       0       0      29
       0       0      32       0      34       0      36       0      38      39
      40       0
%FLAG HBOND_ACOEF                                                               
%FORMAT(5E16.8)                                                                 

%FLAG HBOND_BCOEF                                                               
%FORMAT(5E16.8)                                                                 

%FLAG HBCUT                                                                     
%FORMAT(5E16.8)                                                                 

%FLAG AMBER_ATOM_TYPE                                                           
%FORMAT(20a4)                                                                   
o   c2  n   c2  n2  c2  c2  ss  c3  ca  ca  ca  ca  f   ca  ca  n   c3  ca  ca  
ca  ca  ca  ca  c2  o   hn  h4  h4  h1  ha  ha  ha  ha  h1  h1  ha  ha  ha  ha  
%FLAG TREE_CHAIN_CLASSIFICATION                                                 
%FORMAT(20a4)                                                                   
BLA BLA BLA BLA BLA BLA BLA BLA BLA BLA BLA BLA BLA BLA BLA BLA BLA BLA BLA BLA 
BLA BLA BLA BLA BLA BLA BLA BLA BLA BLA BLA BLA BLA BLA BLA BLA BLA BLA BLA BLA 
%FLAG JOIN_ARRAY                                                                
%FORMAT(10I8)                                                                   
       0       0       0       0       0       0       0       0       0       0
       0       0       0       0       0       0       0       0       0       0
       0       0       0       0       0       0       0       0       0       0
       0       0       0       0       0       0       0       0       0       0
%FLAG IROTAT                                                                    
%FORMAT(10I8)                                                                   
       0       0       0       0       0       0       0       0       0       0
       0       0       0       0       0       0       0       0       0       0
       0       0       0       0       0       0       0       0       0       0
       0       0       0       0       0       0       0       0       0       0
%FLAG RADIUS_SET                                                                
%FORMAT(1a80)                                                                   
modified Bondi radii (mbondi)                                                   
%FLAG RADII                                                                     
%FORMAT(5E16.8)                                                                 
  1.50000000E+00  1.70000000E+00  1.55000000E+00  1.70000000E+00  1.55000000E+00
  1.70000000E+00  1.70000000E+00  1.80000000E+00  1.70000000E+00  1.70000000E+00
  1.70000000E+00  1.70000000E+00  1.70000000E+00  1.50000000E+00  1.70000000E+00
  1.70000000E+00  1.55000000E+00  1.70000000E+00  1.70000000E+00  1.70000000E+00
  1.70000000E+00  1.70000000E+00  1.70000000E+00  1.70000000E+00  1.70000000E+00
  1.50000000E+00  1.30000000E+00  1.30000000E+00  1.30000000E+00  1.30000000E+00
  1.30000000E+00  1.30000000E+00  1.30000000E+00  1.30000000E+00  1.30000000E+00
  1.30000000E+00  1.30000000E+00  1.30000000E+00  1.30000000E+00  1.30000000E+00
%FLAG SCREEN                                                                    
%FORMAT(5E16.8)                                                                 
  8.50000000E-01  7.20000000E-01  7.90000000E-01  7.20000000E-01  7.90000000E-01
  7.20000000E-01  7.20000000E-01  9.60000000E-01  7.20000000E-01  7.20000000E-01
  7.20000000E-01  7.20000000E-01  7.20000000E-01  8.80000000E-01  7.20000000E-01
  7.20000000E-01  7.90000000E-01  7.20000000E-01  7.20000000E-01  7.20000000E-01
  7.20000000E-01  7.20000000E-01  7.20000000E-01  7.20000000E-01  7.20000000E-01
  8.50000000E-01  8.50000000E-01  8.50000000E-01  8.50000000E-01  8.50000000E-01
  8.50000000E-01  8.50000000E-01  8.50000000E-01  8.50000000E-01  8.50000000E-01
  8.50000000E-01  8.50000000E-01  8.50000000E-01  8.50000000E-01  8.50000000E-01
%FLAG IPOL                                                                      
%FORMAT(1I8)                                                                    
       0
