[ moleculetype ]
;name            nrexcl
 EAI045_analog_5  3

[ atoms ]
;   nr  type  resi  res  atom  cgnr     charge      mass       ; qtot   bond_type
     1    o     1   UNL    O1    1    -0.356000     16.00000 ; qtot -0.356
     2   c2     1   UNL    C1    2     0.287000     12.01000 ; qtot -0.069
     3    n     1   UNL    N1    3    -0.272000     14.01000 ; qtot -0.341
     4   c2     1   UNL    C2    4    -0.173000     12.01000 ; qtot -0.514
     5   n2     1   UNL    N2    5    -0.152000     14.01000 ; qtot -0.666
     6   c2     1   UNL    C3    6    -0.112000     12.01000 ; qtot -0.778
     7   c2     1   UNL    C4    7    -0.519000     12.01000 ; qtot -1.297
     8   ss     1   UNL    S1    8     0.591000     32.06000 ; qtot -0.706
     9   c3     1   UNL    C5    9     0.087000     12.01000 ; qtot -0.619
    10   ca     1   UNL    C6   10    -0.092000     12.01000 ; qtot -0.711
    11   ca     1   UNL    C7   11    -0.117500     12.01000 ; qtot -0.828
    12   ca     1   UNL    C8   12    -0.092500     12.01000 ; qtot -0.921
    13   ca     1   UNL    C9   13    -0.001000     12.01000 ; qtot -0.922
    14   c1     1   UNL   C10   14    -0.100000     12.01000 ; qtot -1.022
    15   n1     1   UNL    N3   15    -0.029000     14.01000 ; qtot -1.051
    16   ca     1   UNL   C11   16    -0.092500     12.01000 ; qtot -1.143
    17   ca     1   UNL   C12   17    -0.117500     12.01000 ; qtot -1.261
    18    n     1   UNL    N4   18    -0.354000     14.01000 ; qtot -1.615
    19   c3     1   UNL   C13   19     0.012000     12.01000 ; qtot -1.603
    20   ca     1   UNL   C14   20    -0.075000     12.01000 ; qtot -1.678
    21   ca     1   UNL   C15   21    -0.117000     12.01000 ; qtot -1.795
    22   ca     1   UNL   C16   22    -0.098000     12.01000 ; qtot -1.893
    23   ca     1   UNL   C17   23    -0.140000     12.01000 ; qtot -2.033
    24   ca     1   UNL   C18   24    -0.048000     12.01000 ; qtot -2.081
    25   ca     1   UNL   C19   25    -0.136000     12.01000 ; qtot -2.217
    26   c2     1   UNL   C20   26     0.371000     12.01000 ; qtot -1.846
    27    o     1   UNL    O2   27    -0.354000     16.00000 ; qtot -2.200
    28   hn     1   UNL    H1   28     0.283000      1.00800 ; qtot -1.917
    29   h4     1   UNL    H2   29     0.179000      1.00800 ; qtot -1.738
    30   h4     1   UNL    H3   30     0.180000      1.00800 ; qtot -1.558
    31   h1     1   UNL    H4   31     0.137000      1.00800 ; qtot -1.421
    32   ha     1   UNL    H5   32     0.156500      1.00800 ; qtot -1.264
    33   ha     1   UNL    H6   33     0.150500      1.00800 ; qtot -1.114
    34   ha     1   UNL    H7   34     0.150500      1.00800 ; qtot -0.963
    35   ha     1   UNL    H8   35     0.156500      1.00800 ; qtot -0.807
    36   h1     1   UNL    H9   36     0.110500      1.00800 ; qtot -0.696
    37   h1     1   UNL   H10   37     0.110500      1.00800 ; qtot -0.586
    38   ha     1   UNL   H11   38     0.144000      1.00800 ; qtot -0.442
    39   ha     1   UNL   H12   39     0.140000      1.00800 ; qtot -0.302
    40   ha     1   UNL   H13   40     0.143000      1.00800 ; qtot -0.159
    41   ha     1   UNL   H14   41     0.159000      1.00800 ; qtot 0.000

[ bonds ]
;   ai     aj funct   r             k
     1      2   1    1.2249e-01    4.8317e+05 ;     O1 - C1    
     2      3   1    1.4001e-01    2.6265e+05 ;     C1 - N1    
     2      9   1    1.5088e-01    2.0786e+05 ;     C1 - C5    
     3      4   1    1.4001e-01    2.6265e+05 ;     N1 - C2    
     3     28   1    1.0130e-01    4.4124e+05 ;     N1 - H1    
     4      5   1    1.2809e-01    3.9831e+05 ;     C2 - N2    
     4      8   1    1.7842e-01    1.7887e+05 ;     C2 - S1    
     5      6   1    1.2809e-01    3.9831e+05 ;     N2 - C3    
     6      7   1    1.3379e-01    3.6484e+05 ;     C3 - C4    
     6     29   1    1.0865e-01    3.0117e+05 ;     C3 - H2    
     7      8   1    1.7842e-01    1.7887e+05 ;     C4 - S1    
     7     30   1    1.0865e-01    3.0117e+05 ;     C4 - H3    
     9     10   1    1.5147e-01    2.0410e+05 ;     C5 - C6    
     9     18   1    1.4643e-01    2.1293e+05 ;     C5 - N4    
     9     31   1    1.0969e-01    2.8804e+05 ;     C5 - H4    
    10     11   1    1.3986e-01    2.9644e+05 ;     C6 - C7    
    10     17   1    1.3986e-01    2.9644e+05 ;     C6 - C12   
    11     12   1    1.3986e-01    2.9644e+05 ;     C7 - C8    
    11     32   1    1.0860e-01    3.0183e+05 ;     C7 - H5    
    12     13   1    1.3986e-01    2.9644e+05 ;     C8 - C9    
    12     33   1    1.0860e-01    3.0183e+05 ;     C8 - H6    
    13     14   1    1.4400e-01    2.7246e+05 ;     C9 - C10   
    13     16   1    1.3986e-01    2.9644e+05 ;     C9 - C11   
    14     15   1    1.1619e-01    6.2865e+05 ;    C10 - N3    
    16     17   1    1.3986e-01    2.9644e+05 ;    C11 - C12   
    16     34   1    1.0860e-01    3.0183e+05 ;    C11 - H7    
    17     35   1    1.0860e-01    3.0183e+05 ;    C12 - H8    
    18     19   1    1.4643e-01    2.1293e+05 ;     N4 - C13   
    18     26   1    1.4001e-01    2.6265e+05 ;     N4 - C20   
    19     20   1    1.5147e-01    2.0410e+05 ;    C13 - C14   
    19     36   1    1.0969e-01    2.8804e+05 ;    C13 - H9    
    19     37   1    1.0969e-01    2.8804e+05 ;    C13 - H10   
    20     21   1    1.3986e-01    2.9644e+05 ;    C14 - C15   
    20     25   1    1.3986e-01    2.9644e+05 ;    C14 - C19   
    21     22   1    1.3986e-01    2.9644e+05 ;    C15 - C16   
    21     38   1    1.0860e-01    3.0183e+05 ;    C15 - H11   
    22     23   1    1.3986e-01    2.9644e+05 ;    C16 - C17   
    22     39   1    1.0860e-01    3.0183e+05 ;    C16 - H12   
    23     24   1    1.3986e-01    2.9644e+05 ;    C17 - C18   
    23     40   1    1.0860e-01    3.0183e+05 ;    C17 - H13   
    24     25   1    1.3986e-01    2.9644e+05 ;    C18 - C19   
    24     41   1    1.0860e-01    3.0183e+05 ;    C18 - H14   
    25     26   1    1.3739e-01    3.2221e+05 ;    C19 - C20   
    26     27   1    1.2249e-01    4.8317e+05 ;    C20 - O2    

[ pairs ]
;   ai     aj    funct
     1      4      1 ;     O1 - C2    
     1     10      1 ;     O1 - C6    
     1     18      1 ;     O1 - N4    
     1     28      1 ;     O1 - H1    
     1     31      1 ;     O1 - H4    
     2      5      1 ;     C1 - N2    
     2      8      1 ;     C1 - S1    
     2     11      1 ;     C1 - C7    
     2     17      1 ;     C1 - C12   
     2     19      1 ;     C1 - C13   
     2     26      1 ;     C1 - C20   
     3      6      1 ;     N1 - C3    
     3      7      1 ;     N1 - C4    
     3     10      1 ;     N1 - C6    
     3     18      1 ;     N1 - N4    
     3     31      1 ;     N1 - H4    
     4      9      1 ;     C2 - C5    
     4     29      1 ;     C2 - H2    
     4     30      1 ;     C2 - H3    
     5     28      1 ;     N2 - H1    
     5     30      1 ;     N2 - H3    
     8     28      1 ;     S1 - H1    
     8     29      1 ;     S1 - H2    
     9     12      1 ;     C5 - C8    
     9     16      1 ;     C5 - C11   
     9     20      1 ;     C5 - C14   
     9     25      1 ;     C5 - C19   
     9     27      1 ;     C5 - O2    
     9     28      1 ;     C5 - H1    
     9     32      1 ;     C5 - H5    
     9     35      1 ;     C5 - H8    
     9     36      1 ;     C5 - H9    
     9     37      1 ;     C5 - H10   
    10     13      1 ;     C6 - C9    
    10     19      1 ;     C6 - C13   
    10     26      1 ;     C6 - C20   
    10     33      1 ;     C6 - H6    
    10     34      1 ;     C6 - H7    
    11     14      1 ;     C7 - C10   
    11     16      1 ;     C7 - C11   
    11     18      1 ;     C7 - N4    
    11     31      1 ;     C7 - H4    
    11     35      1 ;     C7 - H8    
    12     15      1 ;     C8 - N3    
    12     17      1 ;     C8 - C12   
    12     34      1 ;     C8 - H7    
    13     32      1 ;     C9 - H5    
    13     35      1 ;     C9 - H8    
    14     17      1 ;    C10 - C12   
    14     33      1 ;    C10 - H6    
    14     34      1 ;    C10 - H7    
    15     16      1 ;     N3 - C11   
    16     33      1 ;    C11 - H6    
    17     18      1 ;    C12 - N4    
    17     31      1 ;    C12 - H4    
    17     32      1 ;    C12 - H5    
    18     21      1 ;     N4 - C15   
    18     24      1 ;     N4 - C18   
    19     22      1 ;    C13 - C16   
    19     24      1 ;    C13 - C18   
    19     27      1 ;    C13 - O2    
    19     31      1 ;    C13 - H4    
    19     38      1 ;    C13 - H11   
    20     23      1 ;    C14 - C17   
    20     27      1 ;    C14 - O2    
    20     39      1 ;    C14 - H12   
    20     41      1 ;    C14 - H14   
    21     24      1 ;    C15 - C18   
    21     26      1 ;    C15 - C20   
    21     36      1 ;    C15 - H9    
    21     37      1 ;    C15 - H10   
    21     40      1 ;    C15 - H13   
    22     25      1 ;    C16 - C19   
    22     41      1 ;    C16 - H14   
    23     26      1 ;    C17 - C20   
    23     38      1 ;    C17 - H11   
    24     27      1 ;    C18 - O2    
    24     39      1 ;    C18 - H12   
    25     36      1 ;    C19 - H9    
    25     37      1 ;    C19 - H10   
    25     38      1 ;    C19 - H11   
    25     40      1 ;    C19 - H13   
    26     31      1 ;    C20 - H4    
    26     36      1 ;    C20 - H9    
    26     37      1 ;    C20 - H10   
    26     41      1 ;    C20 - H14   
    29     30      1 ;     H2 - H3    
    32     33      1 ;     H5 - H6    
    34     35      1 ;     H7 - H8    
    38     39      1 ;    H11 - H12   
    39     40      1 ;    H12 - H13   
    40     41      1 ;    H13 - H14   

[ angles ]
;   ai     aj     ak    funct   theta         cth
     1      2      3      1    1.1746e+02    6.2843e+02 ;     O1 - C1     - N1    
     1      2      9      1    1.2286e+02    6.4501e+02 ;     O1 - C1     - C5    
     2      3      4      1    1.2332e+02    6.4894e+02 ;     C1 - N1     - C2    
     2      3     28      1    1.1790e+02    4.0166e+02 ;     C1 - N1     - H1    
     2      9     10      1    1.1305e+02    5.0794e+02 ;     C1 - C5     - C6    
     2      9     18      1    1.1255e+02    5.4928e+02 ;     C1 - C5     - N4    
     2      9     31      1    1.0996e+02    3.6727e+02 ;     C1 - C5     - H4    
     3      2      9      1    1.2152e+02    5.3898e+02 ;     N1 - C1     - C5    
     3      4      5      1    1.2172e+02    6.1957e+02 ;     N1 - C2     - N2    
     3      4      8      1    1.1128e+02    5.8216e+02 ;     N1 - C2     - S1    
     4      3     28      1    1.1790e+02    4.0166e+02 ;     C2 - N1     - H1    
     4      5      6      1    1.1818e+02    6.1254e+02 ;     C2 - N2     - C3    
     4      8      7      1    9.9700e+01    7.9981e+02 ;     C2 - S1     - C4    
     5      4      8      1    1.2265e+02    5.6199e+02 ;     N2 - C2     - S1    
     5      6      7      1    1.2601e+02    7.5145e+02 ;     N2 - C3     - C4    
     5      6     29      1    1.2105e+02    4.2426e+02 ;     N2 - C3     - H2    
     6      7      8      1    1.2219e+02    5.2752e+02 ;     C3 - C4     - S1    
     6      7     30      1    1.2272e+02    3.8451e+02 ;     C3 - C4     - H3    
     7      6     29      1    1.2272e+02    3.8451e+02 ;     C4 - C3     - H2    
     8      7     30      1    1.1627e+02    3.5179e+02 ;     S1 - C4     - H3    
     9     10     11      1    1.2083e+02    5.0827e+02 ;     C5 - C6     - C7    
     9     10     17      1    1.2083e+02    5.0827e+02 ;     C5 - C6     - C12   
     9     18     19      1    1.1675e+02    6.3773e+02 ;     C5 - N4     - C13   
     9     18     26      1    1.2234e+02    6.3630e+02 ;     C5 - N4     - C20   
    10      9     18      1    1.1351e+02    5.4584e+02 ;     C6 - C5     - N4    
    10      9     31      1    1.0960e+02    3.6660e+02 ;     C6 - C5     - H4    
    10     11     12      1    1.2002e+02    5.3279e+02 ;     C6 - C7     - C8    
    10     11     32      1    1.1988e+02    3.7572e+02 ;     C6 - C7     - H5    
    10     17     16      1    1.2002e+02    5.3279e+02 ;     C6 - C12    - C11   
    10     17     35      1    1.1988e+02    3.7572e+02 ;     C6 - C12    - H8    
    11     10     17      1    1.2002e+02    5.3279e+02 ;     C7 - C6     - C12   
    11     12     13      1    1.2002e+02    5.3279e+02 ;     C7 - C8     - C9    
    11     12     33      1    1.1988e+02    3.7572e+02 ;     C7 - C8     - H6    
    12     11     32      1    1.1988e+02    3.7572e+02 ;     C8 - C7     - H5    
    12     13     14      1    1.2000e+02    5.6651e+02 ;     C8 - C9     - C10   
    12     13     16      1    1.2002e+02    5.3279e+02 ;     C8 - C9     - C11   
    13     12     33      1    1.1988e+02    3.7572e+02 ;     C9 - C8     - H6    
    13     14     15      1    1.8000e+02    5.2635e+02 ;     C9 - C10    - N3    
    13     16     17      1    1.2002e+02    5.3279e+02 ;     C9 - C11    - C12   
    13     16     34      1    1.1988e+02    3.7572e+02 ;     C9 - C11    - H7    
    14     13     16      1    1.2000e+02    5.6651e+02 ;    C10 - C9     - C11   
    16     17     35      1    1.1988e+02    3.7572e+02 ;    C11 - C12    - H8    
    17     16     34      1    1.1988e+02    3.7572e+02 ;    C12 - C11    - H7    
    18      9     31      1    1.0876e+02    4.0242e+02 ;     N4 - C5     - H4    
    18     19     20      1    1.1351e+02    5.4584e+02 ;     N4 - C13    - C14   
    18     19     36      1    1.0876e+02    4.0242e+02 ;     N4 - C13    - H9    
    18     19     37      1    1.0876e+02    4.0242e+02 ;     N4 - C13    - H10   
    18     26     25      1    1.2367e+02    5.7488e+02 ;     N4 - C20    - C19   
    18     26     27      1    1.1746e+02    6.2843e+02 ;     N4 - C20    - O2    
    19     18     26      1    1.2234e+02    6.3630e+02 ;    C13 - N4     - C20   
    19     20     21      1    1.2083e+02    5.0827e+02 ;    C13 - C14    - C15   
    19     20     25      1    1.2083e+02    5.0827e+02 ;    C13 - C14    - C19   
    20     19     36      1    1.0960e+02    3.6660e+02 ;    C14 - C13    - H9    
    20     19     37      1    1.0960e+02    3.6660e+02 ;    C14 - C13    - H10   
    20     21     22      1    1.2002e+02    5.3279e+02 ;    C14 - C15    - C16   
    20     21     38      1    1.1988e+02    3.7572e+02 ;    C14 - C15    - H11   
    20     25     24      1    1.2002e+02    5.3279e+02 ;    C14 - C19    - C18   
    20     25     26      1    1.2084e+02    5.3564e+02 ;    C14 - C19    - C20   
    21     20     25      1    1.2002e+02    5.3279e+02 ;    C15 - C14    - C19   
    21     22     23      1    1.2002e+02    5.3279e+02 ;    C15 - C16    - C17   
    21     22     39      1    1.1988e+02    3.7572e+02 ;    C15 - C16    - H12   
    22     21     38      1    1.1988e+02    3.7572e+02 ;    C16 - C15    - H11   
    22     23     24      1    1.2002e+02    5.3279e+02 ;    C16 - C17    - C18   
    22     23     40      1    1.1988e+02    3.7572e+02 ;    C16 - C17    - H13   
    23     22     39      1    1.1988e+02    3.7572e+02 ;    C17 - C16    - H12   
    23     24     25      1    1.2002e+02    5.3279e+02 ;    C17 - C18    - C19   
    23     24     41      1    1.1988e+02    3.7572e+02 ;    C17 - C18    - H14   
    24     23     40      1    1.1988e+02    3.7572e+02 ;    C18 - C17    - H13   
    24     25     26      1    1.2084e+02    5.3564e+02 ;    C18 - C19    - C20   
    25     24     41      1    1.1988e+02    3.7572e+02 ;    C19 - C18    - H14   
    25     26     27      1    1.2359e+02    6.0919e+02 ;    C19 - C20    - O2    
    36     19     37      1    1.0855e+02    2.9824e+02 ;     H9 - C13    - H10   

[ dihedrals ] ; propers
; for gromacs 4.5 or higher, using funct 9
;    i      j      k      l   func   phase     kd      pn
     1      2      3      4      9   180.00   2.71960   2 ;     O1-    C1-    N1-    C2
     1      2      3     28      9   180.00   2.71960   2 ;     O1-    C1-    N1-    H1
     1      2      9     10      9     0.00   0.00000   0 ;     O1-    C1-    C5-    C6
     1      2      9     18      9     0.00   0.00000   0 ;     O1-    C1-    C5-    N4
     1      2      9     31      9     0.00   0.00000   0 ;     O1-    C1-    C5-    H4
     2      3      4      5      9   180.00   2.71960   2 ;     C1-    N1-    C2-    N2
     2      3      4      8      9   180.00   2.71960   2 ;     C1-    N1-    C2-    S1
     2      9     10     11      9   180.00   0.00000   2 ;     C1-    C5-    C6-    C7
     2      9     10     17      9   180.00   0.00000   2 ;     C1-    C5-    C6-   C12
     2      9     18     19      9     0.00   0.00000   0 ;     C1-    C5-    N4-   C13
     2      9     18     26      9     0.00   0.00000   0 ;     C1-    C5-    N4-   C20
     3      2      9     10      9     0.00   0.00000   0 ;     N1-    C1-    C5-    C6
     3      2      9     18      9     0.00   0.00000   0 ;     N1-    C1-    C5-    N4
     3      2      9     31      9     0.00   0.00000   0 ;     N1-    C1-    C5-    H4
     3      4      5      6      9   180.00  17.36360   2 ;     N1-    C2-    N2-    C3
     3      4      8      7      9   180.00   4.60240   2 ;     N1-    C2-    S1-    C4
     4      3      2      9      9   180.00   2.71960   2 ;     C2-    N1-    C1-    C5
     4      5      6      7      9   180.00  17.36360   2 ;     C2-    N2-    C3-    C4
     4      5      6     29      9   180.00  17.36360   2 ;     C2-    N2-    C3-    H2
     4      8      7      6      9   180.00   4.60240   2 ;     C2-    S1-    C4-    C3
     4      8      7     30      9   180.00   4.60240   2 ;     C2-    S1-    C4-    H3
     5      4      3     28      9   180.00   2.71960   2 ;     N2-    C2-    N1-    H1
     5      4      8      7      9   180.00   4.60240   2 ;     N2-    C2-    S1-    C4
     5      6      7      8      9   180.00  27.82360   2 ;     N2-    C3-    C4-    S1
     5      6      7     30      9   180.00  27.82360   2 ;     N2-    C3-    C4-    H3
     6      5      4      8      9   180.00  17.36360   2 ;     C3-    N2-    C2-    S1
     8      4      3     28      9   180.00   2.71960   2 ;     S1-    C2-    N1-    H1
     8      7      6     29      9   180.00  27.82360   2 ;     S1-    C4-    C3-    H2
     9      2      3     28      9   180.00   2.71960   2 ;     C5-    C1-    N1-    H1
     9     10     11     12      9   180.00  15.16700   2 ;     C5-    C6-    C7-    C8
     9     10     11     32      9   180.00  15.16700   2 ;     C5-    C6-    C7-    H5
     9     10     17     16      9   180.00  15.16700   2 ;     C5-    C6-   C12-   C11
     9     10     17     35      9   180.00  15.16700   2 ;     C5-    C6-   C12-    H8
     9     18     19     20      9     0.00   0.00000   0 ;     C5-    N4-   C13-   C14
     9     18     19     36      9     0.00   0.00000   0 ;     C5-    N4-   C13-    H9
     9     18     19     37      9     0.00   0.00000   0 ;     C5-    N4-   C13-   H10
     9     18     26     25      9   180.00   2.71960   2 ;     C5-    N4-   C20-   C19
     9     18     26     27      9   180.00   2.71960   2 ;     C5-    N4-   C20-    O2
    10      9     18     19      9     0.00   0.00000   0 ;     C6-    C5-    N4-   C13
    10      9     18     26      9     0.00   0.00000   0 ;     C6-    C5-    N4-   C20
    10     11     12     13      9   180.00  15.16700   2 ;     C6-    C7-    C8-    C9
    10     11     12     33      9   180.00  15.16700   2 ;     C6-    C7-    C8-    H6
    10     17     16     13      9   180.00  15.16700   2 ;     C6-   C12-   C11-    C9
    10     17     16     34      9   180.00  15.16700   2 ;     C6-   C12-   C11-    H7
    11     10      9     18      9     0.00   0.00000   0 ;     C7-    C6-    C5-    N4
    11     10      9     31      9     0.00   0.00000   0 ;     C7-    C6-    C5-    H4
    11     10     17     16      9   180.00  15.16700   2 ;     C7-    C6-   C12-   C11
    11     10     17     35      9   180.00  15.16700   2 ;     C7-    C6-   C12-    H8
    11     12     13     14      9   180.00  15.16700   2 ;     C7-    C8-    C9-   C10
    11     12     13     16      9   180.00  15.16700   2 ;     C7-    C8-    C9-   C11
    12     11     10     17      9   180.00  15.16700   2 ;     C8-    C7-    C6-   C12
    12     13     14     15      9   180.00   0.00000   2 ;     C8-    C9-   C10-    N3
    12     13     16     17      9   180.00  15.16700   2 ;     C8-    C9-   C11-   C12
    12     13     16     34      9   180.00  15.16700   2 ;     C8-    C9-   C11-    H7
    13     12     11     32      9   180.00  15.16700   2 ;     C9-    C8-    C7-    H5
    13     16     17     35      9   180.00  15.16700   2 ;     C9-   C11-   C12-    H8
    14     13     12     33      9   180.00  15.16700   2 ;    C10-    C9-    C8-    H6
    14     13     16     17      9   180.00  15.16700   2 ;    C10-    C9-   C11-   C12
    14     13     16     34      9   180.00  15.16700   2 ;    C10-    C9-   C11-    H7
    15     14     13     16      9   180.00   0.00000   2 ;     N3-   C10-    C9-   C11
    16     13     12     33      9   180.00  15.16700   2 ;    C11-    C9-    C8-    H6
    17     10      9     18      9     0.00   0.00000   0 ;    C12-    C6-    C5-    N4
    17     10      9     31      9     0.00   0.00000   0 ;    C12-    C6-    C5-    H4
    17     10     11     32      9   180.00  15.16700   2 ;    C12-    C6-    C7-    H5
    18     19     20     21      9     0.00   0.00000   0 ;     N4-   C13-   C14-   C15
    18     19     20     25      9     0.00   0.00000   0 ;     N4-   C13-   C14-   C19
    18     26     25     20      9   180.00   2.92880   2 ;     N4-   C20-   C19-   C14
    18     26     25     24      9   180.00   2.92880   2 ;     N4-   C20-   C19-   C18
    19     18      9     31      9     0.00   0.00000   0 ;    C13-    N4-    C5-    H4
    19     18     26     25      9   180.00   2.71960   2 ;    C13-    N4-   C20-   C19
    19     18     26     27      9   180.00   2.71960   2 ;    C13-    N4-   C20-    O2
    19     20     21     22      9   180.00  15.16700   2 ;    C13-   C14-   C15-   C16
    19     20     21     38      9   180.00  15.16700   2 ;    C13-   C14-   C15-   H11
    19     20     25     24      9   180.00  15.16700   2 ;    C13-   C14-   C19-   C18
    19     20     25     26      9   180.00  15.16700   2 ;    C13-   C14-   C19-   C20
    20     19     18     26      9     0.00   0.00000   0 ;    C14-   C13-    N4-   C20
    20     21     22     23      9   180.00  15.16700   2 ;    C14-   C15-   C16-   C17
    20     21     22     39      9   180.00  15.16700   2 ;    C14-   C15-   C16-   H12
    20     25     24     23      9   180.00  15.16700   2 ;    C14-   C19-   C18-   C17
    20     25     24     41      9   180.00  15.16700   2 ;    C14-   C19-   C18-   H14
    20     25     26     27      9   180.00   2.92880   2 ;    C14-   C19-   C20-    O2
    21     20     19     36      9     0.00   0.00000   0 ;    C15-   C14-   C13-    H9
    21     20     19     37      9     0.00   0.00000   0 ;    C15-   C14-   C13-   H10
    21     20     25     24      9   180.00  15.16700   2 ;    C15-   C14-   C19-   C18
    21     20     25     26      9   180.00  15.16700   2 ;    C15-   C14-   C19-   C20
    21     22     23     24      9   180.00  15.16700   2 ;    C15-   C16-   C17-   C18
    21     22     23     40      9   180.00  15.16700   2 ;    C15-   C16-   C17-   H13
    22     21     20     25      9   180.00  15.16700   2 ;    C16-   C15-   C14-   C19
    22     23     24     25      9   180.00  15.16700   2 ;    C16-   C17-   C18-   C19
    22     23     24     41      9   180.00  15.16700   2 ;    C16-   C17-   C18-   H14
    23     22     21     38      9   180.00  15.16700   2 ;    C17-   C16-   C15-   H11
    23     24     25     26      9   180.00  15.16700   2 ;    C17-   C18-   C19-   C20
    24     23     22     39      9   180.00  15.16700   2 ;    C18-   C17-   C16-   H12
    24     25     26     27      9   180.00   2.92880   2 ;    C18-   C19-   C20-    O2
    25     20     19     36      9     0.00   0.00000   0 ;    C19-   C14-   C13-    H9
    25     20     19     37      9     0.00   0.00000   0 ;    C19-   C14-   C13-   H10
    25     20     21     38      9   180.00  15.16700   2 ;    C19-   C14-   C15-   H11
    25     24     23     40      9   180.00  15.16700   2 ;    C19-   C18-   C17-   H13
    26     18      9     31      9     0.00   0.00000   0 ;    C20-    N4-    C5-    H4
    26     18     19     36      9     0.00   0.00000   0 ;    C20-    N4-   C13-    H9
    26     18     19     37      9     0.00   0.00000   0 ;    C20-    N4-   C13-   H10
    26     25     24     41      9   180.00  15.16700   2 ;    C20-   C19-   C18-   H14
    29      6      7     30      9   180.00  27.82360   2 ;     H2-    C3-    C4-    H3
    32     11     12     33      9   180.00  15.16700   2 ;     H5-    C7-    C8-    H6
    34     16     17     35      9   180.00  15.16700   2 ;     H7-   C11-   C12-    H8
    38     21     22     39      9   180.00  15.16700   2 ;    H11-   C15-   C16-   H12
    39     22     23     40      9   180.00  15.16700   2 ;    H12-   C16-   C17-   H13
    40     23     24     41      9   180.00  15.16700   2 ;    H13-   C17-   C18-   H14

[ dihedrals ] ; impropers
; treated as propers in GROMACS to use correct AMBER analytical function
;    i      j      k      l   func   phase     kd      pn
     1      2      3      9      4   180.00   4.60240   2 ;     O1-    C1-    N1-    C5
     2      4      3     28      4   180.00   4.60240   2 ;     C1-    C2-    N1-    H1
     3      5      4      8      4   180.00   4.60240   2 ;     N1-    N2-    C2-    S1
     6     30      7      8      4   180.00   4.60240   2 ;     C3-    H3-    C4-    S1
     7     29      6      5      4   180.00   4.60240   2 ;     C4-    H2-    C3-    N2
    10     12     11     32      4   180.00   4.60240   2 ;     C6-    C8-    C7-    H5
    10     16     17     35      4   180.00   4.60240   2 ;     C6-   C11-   C12-    H8
    11     13     12     33      4   180.00   4.60240   2 ;     C7-    C9-    C8-    H6
    11     17     10      9      4   180.00   4.60240   2 ;     C7-   C12-    C6-    C5
    13     17     16     34      4   180.00   4.60240   2 ;     C9-   C12-   C11-    H7
    14     12     13     16      4   180.00   4.60240   2 ;    C10-    C8-    C9-   C11
    19     21     20     25      4   180.00   4.60240   2 ;    C13-   C15-   C14-   C19
    20     22     21     38      4   180.00   4.60240   2 ;    C14-   C16-   C15-   H11
    20     24     25     26      4   180.00   4.60240   2 ;    C14-   C18-   C19-   C20
    21     23     22     39      4   180.00   4.60240   2 ;    C15-   C17-   C16-   H12
    22     24     23     40      4   180.00   4.60240   2 ;    C16-   C18-   C17-   H13
    23     25     24     41      4   180.00   4.60240   2 ;    C17-   C19-   C18-   H14
    25     18     26     27      4   180.00   4.60240   2 ;    C19-    N4-   C20-    O2
    26      9     18     19      4   180.00   4.60240   2 ;    C20-    C5-    N4-   C13

